                         Program Version 5.0.2 -  RELEASE  -
|  1> !rhf pc-1 nori defgrid3 verytightscf
|  2> %pal nprocs 128 end
|  3> %maxcore 5000
|  4>
|  5> %scf
|  6>   maxiter 120
|  7> end
|  8>
|  9> *xyzfile 0 1 valinomycine.xyz
| 10>
| 11>                          ****END OF INPUT****

CARTESIAN COORDINATES (ANGSTROEM)
---------------------------------
  O      0.186321    1.146588   -4.103502
  O      0.368321    2.264087   -0.090002
  O      1.043021    3.226387   -3.789802
  O      1.940321   -0.974512   -6.133202
  O      2.312021    0.411988    1.916798
  O      2.331221   -1.005513   -2.178402
  O      2.427421    3.122887    0.381298
  O      4.082321    2.046788   -2.639602
  O      4.246421   -1.088313   -3.365902
  O     -0.290279   -0.560612    4.091098
  O     -0.665779   -1.812612    0.071898
  O     -1.276979   -2.495512    3.669998
  O     -1.992679    1.757087    5.759898
  O     -2.558979    0.101587   -2.220002
  O     -2.574979    1.612288    2.034198
  O     -2.733579   -2.536912   -0.471002
  O     -4.208979   -1.315913    2.528398
  O     -4.409879    1.788188    3.129998
  N      0.463221    1.477788    2.683098
  N      2.914021    0.743088   -4.879902
  N      3.680621    1.012088   -0.668702
  N     -0.686279   -0.943412   -2.702702
  N     -3.055079    0.049888    4.717098
  N     -3.932579   -0.333012    0.477198
  C      0.457821    5.223388    1.794998
  C      0.824921   -0.881413    3.241698
  C      1.038321    2.760788    2.181798
  C      1.070421    2.150287   -4.364202
  C      1.199421    2.626288    0.663398
  C      1.221021    0.411988    2.539898
  C      1.738021   -2.702412    4.717098
  C      1.951221    4.105887   -6.527102
  C      2.004421   -1.440112    4.029498
  C      2.054821    1.736387   -5.467202
  C      2.524421   -0.457112    5.118098
  C      2.713721    3.257388   -1.084102
  C      2.740621   -0.633012   -5.238002
  C      2.902721    2.957387   -5.911202
  C      3.466421   -1.647012   -4.450202
  C      3.502121   -0.808912   -2.273002
  C      3.506621    4.561187   -1.270302
  C      3.517321    2.046788   -1.485102
  C      3.912821    2.450387   -7.042802
  C      4.375921   -0.198513   -1.141402
  C      4.505221   -2.381712   -5.381202
  C      4.564321   -1.150413    0.047498
  C      5.141221   -3.581913   -4.665002
  C      5.269521   -2.464513   -0.511102
  C      5.475521   -0.539913    1.121798
  C      5.722621   -1.574612   -5.710702
  C     -0.032779   -3.509512   -4.135102
  C     -0.055979    3.909287    2.453898
  C     -0.082979    4.157587    4.000898
  C     -0.236079   -3.343913   -2.545102
  C     -0.816579   -4.647712   -1.943502
  C     -0.889279    1.498387   -3.159602
  C     -1.210379   -2.174713   -2.230002
  C     -1.239779   -1.440112    4.272998
  C     -1.422779    0.132587   -2.631102
  C     -1.507879   -2.154012   -0.726002
  C     -1.967079    2.284788   -3.891502
  C     -2.256279   -0.974512    5.318698
  C     -2.389379   -3.271513    6.478898
  C     -2.846379    1.343187    4.989198
  C     -3.051479   -2.661012    0.906898
  C     -3.164879   -2.185112    5.848698
  C     -3.634779    2.388288    4.215698
  C     -3.730679    1.446687    2.052798
  C     -3.760479   -1.409112    1.350998
  C     -3.972979   -3.892313    0.964198
  C     -4.041379   -4.440713    2.453898
  C     -4.143079   -1.491812    6.887098
  C     -4.584679    0.846588    0.995698
  C     -4.741179    2.998787    5.218398
  C     -4.823679    1.819187   -0.167302
  C     -5.343279   -3.664712    0.319698
  C     -5.544079    3.029787    0.247998
  C     -5.848679    1.115587   -1.198702
  H      0.170121   -0.929813   -3.218802
  H      0.261321   -2.637612   -4.526602
  H      0.549421   -1.551912    2.552898
  H      0.653021   -3.154113   -2.128602
  H      0.663121   -4.205513   -4.311902
  H      0.814421    4.478887    4.303198
  H      0.862921    5.811587    2.494998
  H      1.038121   -2.560112    5.416998
  H      1.147621    5.003387    1.105198
  H      1.306521    3.695088   -7.171802
  H      1.415421   -3.380612    4.056798
  H      1.445121    4.551588   -5.788702
  H      1.554821    1.368688   -6.251202
  H      1.753821    0.046587    5.508598
  H      1.861421    3.298287   -1.605402
  H      1.904721    2.987687    2.626598
  H      2.511521    4.783787   -7.003102
  H      2.578121   -3.031312    5.148498
  H      2.753821   -1.587312    3.383998
  H      2.822421   -2.325812   -4.097302
  H      2.885721    5.291687   -1.554602
  H      2.985421   -0.972612    5.840498
  H      3.168621    0.187087    4.705898
  H      3.331521    1.054388    0.267398
  H      3.397921    2.000787   -7.772802
  H      3.417421    3.326087   -5.137202
  H      3.521521    0.990687   -4.125202
  H      3.677421   -1.390312    0.442198
  H      3.943121    4.812688   -0.406502
  H      4.047821   -2.684712   -6.217302
  H      4.207421    4.428387   -1.971102
  H      4.411421    3.231087   -7.419302
  H      4.430221   -4.106113   -4.196302
  H      4.561521    1.801687   -6.644902
  H      4.583421   -3.058812   -0.930702
  H      4.918621   -0.053012    1.794598
  H      5.271121    0.043388   -1.515602
  H      5.490921   -0.886713   -6.398602
  H      5.598621   -4.166512   -5.335202
  H      5.714921   -2.949812    0.241198
  H      5.809721   -3.255912   -3.996602
  H      5.953521   -2.211112   -1.195202
  H      5.987921   -1.267613    1.577798
  H      6.055421   -1.120212   -4.884402
  H      6.114621    0.099087    0.693698
  H      6.435521   -2.177112   -6.069402
  H     -0.081479   -5.174912   -1.517402
  H     -0.306579    5.700187    1.361098
  H     -0.307279    3.304488    4.471998
  H     -0.527079    1.377787    2.779898
  H     -0.530079    2.036087   -2.396802
  H     -0.773579    4.848187    4.216098
  H     -0.896579   -3.788312   -4.554802
  H     -0.954279    3.642687    2.104798
  H     -1.238579   -5.191212   -2.669102
  H     -1.505079   -4.419912   -1.255002
  H     -1.538379    2.923688   -4.530402
  H     -1.737979   -2.882312    7.130298
  H     -1.758979   -0.602213    6.102298
  H     -1.892879   -3.779113    5.774798
  H     -2.069279   -2.367012   -2.704702
  H     -2.235679   -2.817613    1.463698
  H     -2.516279    2.794487   -3.229302
  H     -2.555779    1.653687   -4.396602
  H     -3.011079   -3.890213    6.959298
  H     -3.036179    3.118887    3.887198
  H     -3.156179   -4.831313    2.706798
  H     -3.387679   -0.276112   -0.359402
  H     -3.522779   -4.607513    0.429598
  H     -3.608479   -0.972412    7.553798
  H     -3.703079   -2.540012    5.084198
  H     -3.783179   -0.206113    4.081198
  H     -3.966479    2.035887   -0.634502
  H     -4.263879   -3.690112    3.076098
  H     -4.301779    3.633887    5.853598
  H     -4.676979   -2.191912    7.361398
  H     -4.746979   -5.146412    2.517798
  H     -4.761379   -0.873612    6.401898
  H     -4.897679    3.685587    0.638098
  H     -5.170579    2.256787    5.733398
  H     -5.267479   -2.959612   -0.385402
  H     -5.333179    0.589187   -1.874802
  H     -5.438079    3.484488    4.690798
  H     -5.469679    0.598187    1.389698
  H     -5.662979   -4.516813   -0.094702
  H     -5.995079    3.438587   -0.545302
  H     -5.995479   -3.368812    1.017598
  H     -6.230679    2.790587    0.934598
  H     -6.388179    1.817287   -1.664002
  H     -6.460179    0.504088   -0.696602

 Total Charge           Charge          ....    0
 Multiplicity           Mult            ....    1
 Number of Electrons    NEL             ....  600
 Basis Dimension        Dim             .... 1542

ORBITAL ENERGIES
----------------

  NO   OCC          E(Eh)            E(eV)
   0   2.0000     -20.606598      -560.7340
   1   2.0000     -20.603775      -560.6572
   2   2.0000     -20.594591      -560.4073
   3   2.0000     -20.590908      -560.3071
   4   2.0000     -20.590570      -560.2979
   5   2.0000     -20.587311      -560.2092
   6   2.0000     -20.548618      -559.1563
   7   2.0000     -20.539202      -558.9001
   8   2.0000     -20.538369      -558.8774
   9   2.0000     -20.536955      -558.8390
  10   2.0000     -20.531070      -558.6788
  11   2.0000     -20.525828      -558.5362
  12   2.0000     -20.522918      -558.4570
  13   2.0000     -20.514681      -558.2328
  14   2.0000     -20.508615      -558.0678
  15   2.0000     -20.506826      -558.0191
  16   2.0000     -20.506749      -558.0170
  17   2.0000     -20.500938      -557.8589
  18   2.0000     -15.581507      -423.9944
  19   2.0000     -15.577960      -423.8978
  20   2.0000     -15.573691      -423.7817
  21   2.0000     -15.570880      -423.7052
  22   2.0000     -15.569854      -423.6773
  23   2.0000     -15.564509      -423.5318
  24   2.0000     -11.389732      -309.9304
  25   2.0000     -11.380432      -309.6773
  26   2.0000     -11.377508      -309.5977
  27   2.0000     -11.376572      -309.5723
  28   2.0000     -11.375359      -309.5393
  29   2.0000     -11.375203      -309.5350
  30   2.0000     -11.369281      -309.3739
  31   2.0000     -11.360201      -309.1268
  32   2.0000     -11.357709      -309.0590
  33   2.0000     -11.350505      -308.8629
  34   2.0000     -11.346020      -308.7409
  35   2.0000     -11.343579      -308.6745
  36   2.0000     -11.301917      -307.5408
  37   2.0000     -11.297497      -307.4205
  38   2.0000     -11.293698      -307.3171
  39   2.0000     -11.290509      -307.2304
  40   2.0000     -11.284758      -307.0739
  41   2.0000     -11.282311      -307.0073
  42   2.0000     -11.275636      -306.8256
  43   2.0000     -11.268282      -306.6255
  44   2.0000     -11.266456      -306.5759
  45   2.0000     -11.263672      -306.5001
  46   2.0000     -11.260110      -306.4032
  47   2.0000     -11.259439      -306.3849
  48   2.0000     -11.220545      -305.3266
  49   2.0000     -11.220110      -305.3147
  50   2.0000     -11.218541      -305.2720
  51   2.0000     -11.217475      -305.2430
  52   2.0000     -11.216884      -305.2269
  53   2.0000     -11.216134      -305.2065
  54   2.0000     -11.208250      -304.9920
  55   2.0000     -11.207898      -304.9824
  56   2.0000     -11.206209      -304.9364
  57   2.0000     -11.200936      -304.7930
  58   2.0000     -11.191056      -304.5241
  59   2.0000     -11.187301      -304.4219
  60   2.0000     -11.184662      -304.3501
  61   2.0000     -11.184635      -304.3494
  62   2.0000     -11.182613      -304.2944
  63   2.0000     -11.181527      -304.2648
  64   2.0000     -11.179211      -304.2018
  65   2.0000     -11.178696      -304.1878
  66   2.0000     -11.178000      -304.1688
  67   2.0000     -11.176798      -304.1361
  68   2.0000     -11.176045      -304.1157
  69   2.0000     -11.174537      -304.0746
  70   2.0000     -11.172632      -304.0228
  71   2.0000     -11.171802      -304.0002
  72   2.0000     -11.171389      -303.9889
  73   2.0000     -11.170391      -303.9618
  74   2.0000     -11.169466      -303.9366
  75   2.0000     -11.168127      -303.9002
  76   2.0000     -11.167543      -303.8843
  77   2.0000     -11.167135      -303.8732
  78   2.0000      -1.509823       -41.0844
  79   2.0000      -1.503682       -40.9173
  80   2.0000      -1.494737       -40.6739
  81   2.0000      -1.489822       -40.5401
  82   2.0000      -1.476048       -40.1653
  83   2.0000      -1.464369       -39.8475
  84   2.0000      -1.414859       -38.5003
  85   2.0000      -1.399237       -38.0752
  86   2.0000      -1.397781       -38.0355
  87   2.0000      -1.391444       -37.8631
  88   2.0000      -1.389817       -37.8188
  89   2.0000      -1.386773       -37.7360
  90   2.0000      -1.386636       -37.7323
  91   2.0000      -1.379003       -37.5246
  92   2.0000      -1.377728       -37.4899
  93   2.0000      -1.369441       -37.2644
  94   2.0000      -1.366058       -37.1723
  95   2.0000      -1.365025       -37.1442
  96   2.0000      -1.262208       -34.3464
  97   2.0000      -1.255924       -34.1754
  98   2.0000      -1.249325       -33.9959
  99   2.0000      -1.246216       -33.9113
 100   2.0000      -1.244595       -33.8672
 101   2.0000      -1.230853       -33.4932
 102   2.0000      -1.127569       -30.6827
 103   2.0000      -1.124465       -30.5982
 104   2.0000      -1.122540       -30.5459
 105   2.0000      -1.111584       -30.2477
 106   2.0000      -1.108936       -30.1757
 107   2.0000      -1.099048       -29.9066
 108   2.0000      -1.098316       -29.8867
 109   2.0000      -1.098199       -29.8835
 110   2.0000      -1.076813       -29.3016
 111   2.0000      -1.074469       -29.2378
 112   2.0000      -1.073079       -29.2000
 113   2.0000      -1.064070       -28.9548
 114   2.0000      -1.029712       -28.0199
 115   2.0000      -1.028247       -27.9800
 116   2.0000      -1.024947       -27.8902
 117   2.0000      -0.999364       -27.1941
 118   2.0000      -0.990642       -26.9567
 119   2.0000      -0.989450       -26.9243
 120   2.0000      -0.976170       -26.5629
 121   2.0000      -0.970074       -26.3970
 122   2.0000      -0.970049       -26.3964
 123   2.0000      -0.968880       -26.3646
 124   2.0000      -0.967072       -26.3154
 125   2.0000      -0.964071       -26.2337
 126   2.0000      -0.963485       -26.2178
 127   2.0000      -0.963303       -26.2128
 128   2.0000      -0.961524       -26.1644
 129   2.0000      -0.960920       -26.1480
 130   2.0000      -0.959175       -26.1005
 131   2.0000      -0.950035       -25.8518
 132   2.0000      -0.923416       -25.1274
 133   2.0000      -0.917652       -24.9706
 134   2.0000      -0.911068       -24.7914
 135   2.0000      -0.863083       -23.4857
 136   2.0000      -0.859323       -23.3834
 137   2.0000      -0.853039       -23.2124
 138   2.0000      -0.848258       -23.0823
 139   2.0000      -0.844082       -22.9686
 140   2.0000      -0.842782       -22.9333
 141   2.0000      -0.834543       -22.7091
 142   2.0000      -0.827252       -22.5107
 143   2.0000      -0.823224       -22.4011
 144   2.0000      -0.816528       -22.2189
 145   2.0000      -0.813570       -22.1384
 146   2.0000      -0.811276       -22.0759
 147   2.0000      -0.809154       -22.0182
 148   2.0000      -0.804125       -21.8814
 149   2.0000      -0.800988       -21.7960
 150   2.0000      -0.796751       -21.6807
 151   2.0000      -0.795540       -21.6477
 152   2.0000      -0.790992       -21.5240
 153   2.0000      -0.787478       -21.4284
 154   2.0000      -0.784000       -21.3337
 155   2.0000      -0.778249       -21.1772
 156   2.0000      -0.755543       -20.5594
 157   2.0000      -0.752965       -20.4892
 158   2.0000      -0.752570       -20.4785
 159   2.0000      -0.749183       -20.3863
 160   2.0000      -0.746851       -20.3229
 161   2.0000      -0.742086       -20.1932
 162   2.0000      -0.735636       -20.0177
 163   2.0000      -0.726518       -19.7696
 164   2.0000      -0.724643       -19.7185
 165   2.0000      -0.723300       -19.6820
 166   2.0000      -0.713041       -19.4028
 167   2.0000      -0.709640       -19.3103
 168   2.0000      -0.705375       -19.1942
 169   2.0000      -0.701321       -19.0839
 170   2.0000      -0.698051       -18.9949
 171   2.0000      -0.692717       -18.8498
 172   2.0000      -0.691752       -18.8235
 173   2.0000      -0.685505       -18.6535
 174   2.0000      -0.681269       -18.5383
 175   2.0000      -0.677723       -18.4418
 176   2.0000      -0.673359       -18.3230
 177   2.0000      -0.671310       -18.2673
 178   2.0000      -0.668480       -18.1903
 179   2.0000      -0.663329       -18.0501
 180   2.0000      -0.663051       -18.0425
 181   2.0000      -0.655904       -17.8481
 182   2.0000      -0.652840       -17.7647
 183   2.0000      -0.649374       -17.6704
 184   2.0000      -0.647826       -17.6282
 185   2.0000      -0.645132       -17.5549
 186   2.0000      -0.641248       -17.4493
 187   2.0000      -0.638686       -17.3795
 188   2.0000      -0.636445       -17.3186
 189   2.0000      -0.635721       -17.2988
 190   2.0000      -0.633252       -17.2317
 191   2.0000      -0.630169       -17.1478
 192   2.0000      -0.628794       -17.1104
 193   2.0000      -0.628346       -17.0982
 194   2.0000      -0.626491       -17.0477
 195   2.0000      -0.624281       -16.9876
 196   2.0000      -0.621215       -16.9041
 197   2.0000      -0.618492       -16.8300
 198   2.0000      -0.617980       -16.8161
 199   2.0000      -0.613455       -16.6930
 200   2.0000      -0.612130       -16.6569
 201   2.0000      -0.610587       -16.6149
 202   2.0000      -0.608695       -16.5634
 203   2.0000      -0.605302       -16.4711
 204   2.0000      -0.603635       -16.4257
 205   2.0000      -0.601508       -16.3679
 206   2.0000      -0.600908       -16.3515
 207   2.0000      -0.595829       -16.2133
 208   2.0000      -0.594530       -16.1780
 209   2.0000      -0.594163       -16.1680
 210   2.0000      -0.592121       -16.1124
 211   2.0000      -0.589597       -16.0437
 212   2.0000      -0.588037       -16.0013
 213   2.0000      -0.586906       -15.9705
 214   2.0000      -0.583970       -15.8906
 215   2.0000      -0.582300       -15.8452
 216   2.0000      -0.580780       -15.8038
 217   2.0000      -0.579841       -15.7783
 218   2.0000      -0.577037       -15.7020
 219   2.0000      -0.576713       -15.6932
 220   2.0000      -0.576358       -15.6835
 221   2.0000      -0.574568       -15.6348
 222   2.0000      -0.573612       -15.6088
 223   2.0000      -0.571498       -15.5512
 224   2.0000      -0.570867       -15.5341
 225   2.0000      -0.570482       -15.5236
 226   2.0000      -0.570025       -15.5112
 227   2.0000      -0.567953       -15.4548
 228   2.0000      -0.567635       -15.4461
 229   2.0000      -0.566536       -15.4162
 230   2.0000      -0.565733       -15.3944
 231   2.0000      -0.564529       -15.3616
 232   2.0000      -0.563187       -15.3251
 233   2.0000      -0.563022       -15.3206
 234   2.0000      -0.562603       -15.3092
 235   2.0000      -0.559448       -15.2233
 236   2.0000      -0.558901       -15.2085
 237   2.0000      -0.557289       -15.1646
 238   2.0000      -0.555298       -15.1104
 239   2.0000      -0.553508       -15.0617
 240   2.0000      -0.548971       -14.9383
 241   2.0000      -0.546828       -14.8800
 242   2.0000      -0.544869       -14.8266
 243   2.0000      -0.541099       -14.7240
 244   2.0000      -0.534635       -14.5482
 245   2.0000      -0.532045       -14.4777
 246   2.0000      -0.524921       -14.2838
 247   2.0000      -0.518335       -14.1046
 248   2.0000      -0.517998       -14.0954
 249   2.0000      -0.516709       -14.0604
 250   2.0000      -0.513626       -13.9765
 251   2.0000      -0.511217       -13.9109
 252   2.0000      -0.510660       -13.8958
 253   2.0000      -0.509247       -13.8573
 254   2.0000      -0.508121       -13.8267
 255   2.0000      -0.506425       -13.7805
 256   2.0000      -0.503806       -13.7093
 257   2.0000      -0.503086       -13.6897
 258   2.0000      -0.502524       -13.6744
 259   2.0000      -0.501215       -13.6388
 260   2.0000      -0.500293       -13.6137
 261   2.0000      -0.497435       -13.5359
 262   2.0000      -0.496154       -13.5010
 263   2.0000      -0.494607       -13.4589
 264   2.0000      -0.493410       -13.4264
 265   2.0000      -0.486067       -13.2265
 266   2.0000      -0.485068       -13.1994
 267   2.0000      -0.484293       -13.1783
 268   2.0000      -0.480645       -13.0790
 269   2.0000      -0.479780       -13.0555
 270   2.0000      -0.478706       -13.0263
 271   2.0000      -0.477959       -13.0059
 272   2.0000      -0.475514       -12.9394
 273   2.0000      -0.474641       -12.9156
 274   2.0000      -0.473280       -12.8786
 275   2.0000      -0.469464       -12.7748
 276   2.0000      -0.468689       -12.7537
 277   2.0000      -0.467458       -12.7202
 278   2.0000      -0.467019       -12.7082
 279   2.0000      -0.466551       -12.6955
 280   2.0000      -0.464629       -12.6432
 281   2.0000      -0.455770       -12.4021
 282   2.0000      -0.454082       -12.3562
 283   2.0000      -0.449442       -12.2299
 284   2.0000      -0.448020       -12.1913
 285   2.0000      -0.447521       -12.1777
 286   2.0000      -0.445912       -12.1339
 287   2.0000      -0.444180       -12.0867
 288   2.0000      -0.433970       -11.8089
 289   2.0000      -0.432249       -11.7621
 290   2.0000      -0.430930       -11.7262
 291   2.0000      -0.427844       -11.6422
 292   2.0000      -0.426465       -11.6047
 293   2.0000      -0.421843       -11.4789
 294   2.0000      -0.407968       -11.1014
 295   2.0000      -0.406798       -11.0695
 296   2.0000      -0.400761       -10.9053
 297   2.0000      -0.399538       -10.8720
 298   2.0000      -0.385512       -10.4903
 299   2.0000      -0.379174       -10.3179
 300   0.0000       0.135528         3.6879
 301   0.0000       0.142681         3.8826
 302   0.0000       0.145828         3.9682
 303   0.0000       0.149825         4.0769
 304   0.0000       0.151558         4.1241

MULLIKEN ATOMIC CHARGES
-----------------------
   0 O :   -0.751901
   1 O :   -0.513445
   2 O :   -0.593334
   3 O :   -0.596446
   4 O :   -0.722052
   5 O :   -0.532245
   6 O :   -0.731345
   7 O :   -0.740014
   8 O :   -0.700370
   9 O :   -0.710258
  10 O :   -0.533002
  11 O :   -0.601407
  12 O :   -0.598732
  13 O :   -0.673616
  14 O :   -0.565782
  15 O :   -0.669603
  16 O :   -0.706530
  17 O :   -0.699606
  18 N :   -0.647834
  19 N :   -0.746490
  20 N :   -0.668071
  21 N :   -0.633690
  22 N :   -0.687273
  23 N :   -0.711935
  24 C :   -0.050318
  25 C :    0.304693
  26 C :    0.105896
  27 C :    0.825831
  28 C :    0.759726
  29 C :    0.710198
  30 C :   -0.014233
  31 C :   -0.070534
  32 C :   -0.413308
  33 C :    0.111018
  34 C :   -0.068741
  35 C :    0.093636
  36 C :    0.702923
  37 C :   -0.330130
  38 C :    0.210156
  39 C :    0.723189
  40 C :   -0.018223
  41 C :    0.684035
  42 C :   -0.049128
  43 C :    0.201373
  44 C :   -0.352117
  45 C :   -0.395821
  46 C :   -0.048280
  47 C :   -0.061025
  48 C :   -0.039923
  49 C :   -0.045721
  50 C :   -0.071634
  51 C :   -0.384415
  52 C :   -0.059919
  53 C :   -0.388888
  54 C :   -0.055144
  55 C :    0.136886
  56 C :    0.174989
  57 C :    0.819676
  58 C :    0.671264
  59 C :    0.668657
  60 C :   -0.031904
  61 C :    0.067053
  62 C :   -0.029745
  63 C :    0.656363
  64 C :    0.253893
  65 C :   -0.352925
  66 C :    0.099464
  67 C :    0.755573
  68 C :    0.709206
  69 C :   -0.377768
  70 C :   -0.067699
  71 C :   -0.055208
  72 C :    0.180664
  73 C :   -0.013541
  74 C :   -0.411047
  75 C :   -0.045269
  76 C :   -0.000664
  77 C :   -0.055849
  78 H :    0.311144
  79 H :    0.101425
  80 H :    0.165214
  81 H :    0.112275
  82 H :    0.075425
  83 H :    0.064601
  84 H :    0.065714
  85 H :    0.070143
  86 H :    0.098810
  87 H :    0.057537
  88 H :    0.077233
  89 H :    0.102856
  90 H :    0.112266
  91 H :    0.092905
  92 H :    0.199275
  93 H :    0.084333
  94 H :    0.069433
  95 H :    0.076174
  96 H :    0.098702
  97 H :    0.146197
  98 H :    0.080581
  99 H :    0.062339
 100 H :    0.081094
 101 H :    0.319560
 102 H :    0.062658
 103 H :    0.091172
 104 H :    0.320053
 105 H :    0.107481
 106 H :    0.089554
 107 H :    0.090027
 108 H :    0.107639
 109 H :    0.069642
 110 H :    0.058457
 111 H :    0.093215
 112 H :    0.081066
 113 H :    0.114217
 114 H :    0.096065
 115 H :    0.088095
 116 H :    0.081336
 117 H :    0.077947
 118 H :    0.080815
 119 H :    0.076542
 120 H :    0.064515
 121 H :    0.091174
 122 H :    0.063183
 123 H :    0.070342
 124 H :    0.079297
 125 H :    0.076729
 126 H :    0.135510
 127 H :    0.315339
 128 H :    0.182675
 129 H :    0.070259
 130 H :    0.075640
 131 H :    0.111052
 132 H :    0.068424
 133 H :    0.101855
 134 H :    0.081856
 135 H :    0.055854
 136 H :    0.108224
 137 H :    0.104604
 138 H :    0.081970
 139 H :    0.186780
 140 H :    0.085330
 141 H :    0.076205
 142 H :    0.070926
 143 H :    0.127276
 144 H :    0.078688
 145 H :    0.320809
 146 H :    0.091012
 147 H :    0.066611
 148 H :    0.122789
 149 H :    0.304133
 150 H :    0.090544
 151 H :    0.132465
 152 H :    0.097298
 153 H :    0.069449
 154 H :    0.061846
 155 H :    0.077312
 156 H :    0.072661
 157 H :    0.084791
 158 H :    0.090227
 159 H :    0.106503
 160 H :    0.085812
 161 H :    0.093454
 162 H :    0.076638
 163 H :    0.080978
 164 H :    0.073126
 165 H :    0.069482
 166 H :    0.060204
 167 H :    0.064675
Sum of atomic charges:   -0.0000000

LOEWDIN ATOMIC CHARGES
----------------------
   0 O :   -0.236277
   1 O :   -0.235159
   2 O :   -0.283247
   3 O :   -0.344594
   4 O :   -0.384429
   5 O :   -0.241952
   6 O :   -0.237207
   7 O :   -0.424599
   8 O :   -0.197151
   9 O :   -0.169139
  10 O :   -0.273044
  11 O :   -0.291658
  12 O :   -0.335635
  13 O :   -0.342470
  14 O :   -0.240440
  15 O :   -0.153019
  16 O :   -0.377546
  17 O :   -0.201891
  18 N :   -0.094606
  19 N :   -0.145557
  20 N :   -0.089590
  21 N :   -0.073986
  22 N :   -0.099215
  23 N :   -0.121188
  24 C :   -0.096247
  25 C :    0.116439
  26 C :    0.054167
  27 C :    0.256315
  28 C :    0.206194
  29 C :    0.227251
  30 C :   -0.092329
  31 C :   -0.103886
  32 C :   -0.057623
  33 C :    0.041585
  34 C :   -0.098929
  35 C :    0.128385
  36 C :    0.237514
  37 C :   -0.037561
  38 C :    0.095318
  39 C :    0.220536
  40 C :   -0.072370
  41 C :    0.234649
  42 C :   -0.097847
  43 C :    0.056042
  44 C :   -0.041700
  45 C :   -0.038905
  46 C :   -0.093975
  47 C :   -0.098683
  48 C :   -0.091779
  49 C :   -0.095225
  50 C :   -0.093154
  51 C :   -0.034052
  52 C :   -0.095172
  53 C :   -0.039362
  54 C :   -0.092702
  55 C :    0.124114
  56 C :    0.031586
  57 C :    0.222007
  58 C :    0.191159
  59 C :    0.199651
  60 C :   -0.082421
  61 C :    0.040315
  62 C :   -0.097270
  63 C :    0.180467
  64 C :    0.098867
  65 C :   -0.037498
  66 C :    0.110580
  67 C :    0.181674
  68 C :    0.262349
  69 C :   -0.045333
  70 C :   -0.091010
  71 C :   -0.098810
  72 C :    0.035696
  73 C :   -0.070817
  74 C :   -0.040609
  75 C :   -0.097318
  76 C :   -0.096166
  77 C :   -0.088786
  78 H :    0.127784
  79 H :    0.039704
  80 H :    0.052570
  81 H :    0.036046
  82 H :    0.042876
  83 H :    0.039114
  84 H :    0.043267
  85 H :    0.036825
  86 H :    0.038069
  87 H :    0.037076
  88 H :    0.042931
  89 H :    0.042640
  90 H :    0.050216
  91 H :    0.044610
  92 H :    0.050043
  93 H :    0.043633
  94 H :    0.041497
  95 H :    0.044292
  96 H :    0.043543
  97 H :    0.046721
  98 H :    0.051244
  99 H :    0.041967
 100 H :    0.041758
 101 H :    0.125007
 102 H :    0.040851
 103 H :    0.036855
 104 H :    0.110778
 105 H :    0.040450
 106 H :    0.048314
 107 H :    0.043657
 108 H :    0.055330
 109 H :    0.040292
 110 H :    0.034771
 111 H :    0.039284
 112 H :    0.040456
 113 H :    0.047226
 114 H :    0.041363
 115 H :    0.039231
 116 H :    0.046217
 117 H :    0.043386
 118 H :    0.042640
 119 H :    0.040853
 120 H :    0.042562
 121 H :    0.044089
 122 H :    0.041997
 123 H :    0.045583
 124 H :    0.047832
 125 H :    0.045995
 126 H :    0.043886
 127 H :    0.131175
 128 H :    0.046343
 129 H :    0.039980
 130 H :    0.042191
 131 H :    0.034614
 132 H :    0.043656
 133 H :    0.037071
 134 H :    0.047093
 135 H :    0.038483
 136 H :    0.047845
 137 H :    0.046209
 138 H :    0.036337
 139 H :    0.052286
 140 H :    0.051788
 141 H :    0.046489
 142 H :    0.045345
 143 H :    0.043509
 144 H :    0.044302
 145 H :    0.122484
 146 H :    0.036134
 147 H :    0.041550
 148 H :    0.036927
 149 H :    0.118578
 150 H :    0.038748
 151 H :    0.042894
 152 H :    0.053234
 153 H :    0.039994
 154 H :    0.039422
 155 H :    0.038076
 156 H :    0.038664
 157 H :    0.046924
 158 H :    0.042586
 159 H :    0.047192
 160 H :    0.047846
 161 H :    0.044641
 162 H :    0.046535
 163 H :    0.046158
 164 H :    0.043453
 165 H :    0.043615
 166 H :    0.039438
 167 H :    0.041141

  Mayer bond orders larger than 0.100000
B(  0-O , 27-C ) :   0.9798 B(  0-O , 55-C ) :   0.6977 B(  1-O , 28-C ) :   1.8869
B(  2-O , 27-C ) :   1.7947 B(  3-O , 36-C ) :   1.7602 B(  4-O , 29-C ) :   1.6078
B(  5-O , 39-C ) :   1.8643 B(  6-O , 28-C ) :   0.9556 B(  6-O , 35-C ) :   0.7159
B(  7-O , 41-C ) :   1.5774 B(  8-O , 38-C ) :   0.7233 B(  8-O , 39-C ) :   0.9629
B(  9-O , 25-C ) :   0.6859 B(  9-O , 57-C ) :   1.0259 B( 10-O , 59-C ) :   1.8697
B( 11-O , 57-C ) :   1.7877 B( 12-O , 63-C ) :   1.7472 B( 13-O , 58-C ) :   1.6651
B( 14-O , 67-C ) :   1.8360 B( 15-O , 59-C ) :   1.0119 B( 15-O , 64-C ) :   0.7052
B( 16-O , 68-C ) :   1.6303 B( 17-O , 66-C ) :   0.6999 B( 17-O , 67-C ) :   0.9865
B( 18-N , 26-C ) :   0.8570 B( 18-N , 29-C ) :   1.1867 B( 18-N ,127-H ) :   0.8821
B( 19-N , 33-C ) :   0.8645 B( 19-N , 36-C ) :   1.0553 B( 19-N ,104-H ) :   0.8883
B( 20-N , 41-C ) :   1.2196 B( 20-N , 43-C ) :   0.8501 B( 20-N ,101-H ) :   0.8844
B( 21-N , 56-C ) :   0.8686 B( 21-N , 58-C ) :   1.1856 B( 21-N , 78-H ) :   0.8861
B( 22-N , 61-C ) :   0.8653 B( 22-N , 63-C ) :   1.1125 B( 22-N ,149-H ) :   0.8943
B( 23-N , 68-C ) :   1.1217 B( 23-N , 72-C ) :   0.8797 B( 23-N ,145-H ) :   0.8834
B( 24-C , 51-C ) :   0.9700 B( 24-C , 84-H ) :   0.9888 B( 24-C , 86-H ) :   0.9842
B( 24-C ,125-H ) :   0.9841 B( 25-C , 29-C ) :   1.0137 B( 25-C , 32-C ) :   1.0082
B( 25-C , 80-H ) :   0.9344 B( 26-C , 28-C ) :   0.9178 B( 26-C , 51-C ) :   0.9495
B( 26-C , 93-H ) :   0.9953 B( 27-C , 33-C ) :   0.9036 B( 30-C , 32-C ) :   1.0346
B( 30-C , 85-H ) :   0.9709 B( 30-C , 88-H ) :   0.9811 B( 30-C , 95-H ) :   0.9779
B( 31-C , 37-C ) :   1.0094 B( 31-C , 87-H ) :   0.9797 B( 31-C , 89-H ) :   0.9826
B( 31-C , 94-H ) :   0.9893 B( 32-C , 34-C ) :   0.9950 B( 32-C , 96-H ) :   0.9694
B( 33-C , 37-C ) :   0.9321 B( 33-C , 90-H ) :   0.9647 B( 34-C , 91-H ) :   0.9767
B( 34-C , 99-H ) :   0.9937 B( 34-C ,100-H ) :   0.9834 B( 35-C , 40-C ) :   1.0285
B( 35-C , 41-C ) :   0.9597 B( 35-C , 92-H ) :   0.9186 B( 36-C , 38-C ) :   0.9815
B( 37-C , 42-C ) :   1.0198 B( 37-C ,103-H ) :   0.9851 B( 38-C , 44-C ) :   1.0068
B( 38-C , 97-H ) :   0.9480 B( 39-C , 43-C ) :   0.9207 B( 40-C , 98-H ) :   0.9805
B( 40-C ,106-H ) :   0.9725 B( 40-C ,108-H ) :   0.9784 B( 42-C ,102-H ) :   0.9798
B( 42-C ,109-H ) :   0.9894 B( 42-C ,111-H ) :   0.9803 B( 43-C , 45-C ) :   0.9429
B( 43-C ,114-H ) :   0.9771 B( 44-C , 46-C ) :   1.0166 B( 44-C , 49-C ) :   0.9758
B( 44-C ,107-H ) :   0.9877 B( 45-C , 47-C ) :   1.0115 B( 45-C , 48-C ) :   0.9972
B( 45-C ,105-H ) :   0.9826 B( 46-C ,110-H ) :   0.9889 B( 46-C ,116-H ) :   0.9832
B( 46-C ,118-H ) :   0.9790 B( 47-C ,112-H ) :   0.9816 B( 47-C ,117-H ) :   0.9897
B( 47-C ,119-H ) :   0.9752 B( 48-C ,113-H ) :   0.9765 B( 48-C ,120-H ) :   0.9895
B( 48-C ,122-H ) :   0.9810 B( 49-C ,115-H ) :   0.9802 B( 49-C ,121-H ) :   0.9766
B( 49-C ,123-H ) :   0.9888 B( 50-C , 53-C ) :   1.0243 B( 50-C , 79-H ) :   0.9739
B( 50-C , 82-H ) :   0.9848 B( 50-C ,130-H ) :   0.9824 B( 51-C , 52-C ) :   1.0039
B( 51-C ,131-H ) :   0.9852 B( 52-C , 83-H ) :   0.9819 B( 52-C ,126-H ) :   0.9702
B( 52-C ,129-H ) :   0.9864 B( 53-C , 54-C ) :   0.9778 B( 53-C , 56-C ) :   0.9504
B( 53-C , 81-H ) :   0.9784 B( 54-C ,124-H ) :   0.9839 B( 54-C ,132-H ) :   0.9857
B( 54-C ,133-H ) :   0.9821 B( 55-C , 58-C ) :   0.9785 B( 55-C , 60-C ) :   1.0445
B( 55-C ,128-H ) :   0.9229 B( 56-C , 59-C ) :   0.9325 B( 56-C ,138-H ) :   0.9855
B( 57-C , 61-C ) :   0.8913 B( 60-C ,134-H ) :   0.9810 B( 60-C ,140-H ) :   0.9729
B( 60-C ,141-H ) :   0.9762 B( 61-C , 65-C ) :   0.9645 B( 61-C ,136-H ) :   0.9656
B( 62-C , 65-C ) :   1.0094 B( 62-C ,135-H ) :   0.9758 B( 62-C ,137-H ) :   0.9777
B( 62-C ,142-H ) :   0.9834 B( 63-C , 66-C ) :   0.9748 B( 64-C , 68-C ) :   0.9670
B( 64-C , 69-C ) :   1.0038 B( 64-C ,139-H ) :   0.9421 B( 65-C , 71-C ) :   1.0363
B( 65-C ,148-H ) :   0.9522 B( 66-C , 73-C ) :   1.0259 B( 66-C ,143-H ) :   0.9636
B( 67-C , 72-C ) :   0.9134 B( 69-C , 70-C ) :   1.0255 B( 69-C , 75-C ) :   0.9879
B( 69-C ,146-H ) :   0.9814 B( 70-C ,144-H ) :   0.9790 B( 70-C ,151-H ) :   0.9609
B( 70-C ,154-H ) :   0.9878 B( 71-C ,147-H ) :   0.9774 B( 71-C ,153-H ) :   0.9900
B( 71-C ,155-H ) :   0.9840 B( 72-C , 74-C ) :   0.9470 B( 72-C ,161-H ) :   0.9740
B( 73-C ,152-H ) :   0.9735 B( 73-C ,157-H ) :   0.9766 B( 73-C ,160-H ) :   0.9824
B( 74-C , 76-C ) :   0.9823 B( 74-C , 77-C ) :   1.0201 B( 74-C ,150-H ) :   0.9892
B( 75-C ,158-H ) :   0.9815 B( 75-C ,162-H ) :   0.9847 B( 75-C ,164-H ) :   0.9811
B( 76-C ,156-H ) :   0.9825 B( 76-C ,163-H ) :   0.9852 B( 76-C ,165-H ) :   0.9752
B( 77-C ,159-H ) :   0.9821 B( 77-C ,166-H ) :   0.9933 B( 77-C ,167-H ) :   0.9782

FINAL SINGLE POINT ENERGY     -3770.199565457540

DIPOLE MOMENT
-------------
                                X             Y             Z
Electronic contribution:     -4.94997      14.39391      -4.49064
Nuclear contribution   :      4.74110     -14.78988       4.90468
                        -----------------------------------------
Total Dipole Moment    :     -0.20887      -0.39597       0.41404
                        -----------------------------------------
Magnitude (a.u.)       :      0.60979
Magnitude (Debye)      :      1.54997

Rotational constants in cm-1:     0.001327     0.000669     0.000660
Rotational constants in MHz :    39.769063    20.052824    19.784539

                             ****ORCA TERMINATED NORMALLY****
TOTAL RUN TIME: 0 days 0 hours 6 minutes 42 seconds 2 msec
