                         Program Version 5.0.2 -  RELEASE  -
|  1> !rhf pc-2 nori defgrid3 verytightscf
|  2> %pal nprocs 128 end
|  3> %maxcore 5000
|  4>
|  5> %scf
|  6>   maxiter 120
|  7> end
|  8>
|  9> *xyzfile 0 1 valinomycine.xyz
| 10>
| 11>                          ****END OF INPUT****

CARTESIAN COORDINATES (ANGSTROEM)
---------------------------------
  O      0.186321    1.146588   -4.103502
  O      0.368321    2.264087   -0.090002
  O      1.043021    3.226387   -3.789802
  O      1.940321   -0.974512   -6.133202
  O      2.312021    0.411988    1.916798
  O      2.331221   -1.005513   -2.178402
  O      2.427421    3.122887    0.381298
  O      4.082321    2.046788   -2.639602
  O      4.246421   -1.088313   -3.365902
  O     -0.290279   -0.560612    4.091098
  O     -0.665779   -1.812612    0.071898
  O     -1.276979   -2.495512    3.669998
  O     -1.992679    1.757087    5.759898
  O     -2.558979    0.101587   -2.220002
  O     -2.574979    1.612288    2.034198
  O     -2.733579   -2.536912   -0.471002
  O     -4.208979   -1.315913    2.528398
  O     -4.409879    1.788188    3.129998
  N      0.463221    1.477788    2.683098
  N      2.914021    0.743088   -4.879902
  N      3.680621    1.012088   -0.668702
  N     -0.686279   -0.943412   -2.702702
  N     -3.055079    0.049888    4.717098
  N     -3.932579   -0.333012    0.477198
  C      0.457821    5.223388    1.794998
  C      0.824921   -0.881413    3.241698
  C      1.038321    2.760788    2.181798
  C      1.070421    2.150287   -4.364202
  C      1.199421    2.626288    0.663398
  C      1.221021    0.411988    2.539898
  C      1.738021   -2.702412    4.717098
  C      1.951221    4.105887   -6.527102
  C      2.004421   -1.440112    4.029498
  C      2.054821    1.736387   -5.467202
  C      2.524421   -0.457112    5.118098
  C      2.713721    3.257388   -1.084102
  C      2.740621   -0.633012   -5.238002
  C      2.902721    2.957387   -5.911202
  C      3.466421   -1.647012   -4.450202
  C      3.502121   -0.808912   -2.273002
  C      3.506621    4.561187   -1.270302
  C      3.517321    2.046788   -1.485102
  C      3.912821    2.450387   -7.042802
  C      4.375921   -0.198513   -1.141402
  C      4.505221   -2.381712   -5.381202
  C      4.564321   -1.150413    0.047498
  C      5.141221   -3.581913   -4.665002
  C      5.269521   -2.464513   -0.511102
  C      5.475521   -0.539913    1.121798
  C      5.722621   -1.574612   -5.710702
  C     -0.032779   -3.509512   -4.135102
  C     -0.055979    3.909287    2.453898
  C     -0.082979    4.157587    4.000898
  C     -0.236079   -3.343913   -2.545102
  C     -0.816579   -4.647712   -1.943502
  C     -0.889279    1.498387   -3.159602
  C     -1.210379   -2.174713   -2.230002
  C     -1.239779   -1.440112    4.272998
  C     -1.422779    0.132587   -2.631102
  C     -1.507879   -2.154012   -0.726002
  C     -1.967079    2.284788   -3.891502
  C     -2.256279   -0.974512    5.318698
  C     -2.389379   -3.271513    6.478898
  C     -2.846379    1.343187    4.989198
  C     -3.051479   -2.661012    0.906898
  C     -3.164879   -2.185112    5.848698
  C     -3.634779    2.388288    4.215698
  C     -3.730679    1.446687    2.052798
  C     -3.760479   -1.409112    1.350998
  C     -3.972979   -3.892313    0.964198
  C     -4.041379   -4.440713    2.453898
  C     -4.143079   -1.491812    6.887098
  C     -4.584679    0.846588    0.995698
  C     -4.741179    2.998787    5.218398
  C     -4.823679    1.819187   -0.167302
  C     -5.343279   -3.664712    0.319698
  C     -5.544079    3.029787    0.247998
  C     -5.848679    1.115587   -1.198702
  H      0.170121   -0.929813   -3.218802
  H      0.261321   -2.637612   -4.526602
  H      0.549421   -1.551912    2.552898
  H      0.653021   -3.154113   -2.128602
  H      0.663121   -4.205513   -4.311902
  H      0.814421    4.478887    4.303198
  H      0.862921    5.811587    2.494998
  H      1.038121   -2.560112    5.416998
  H      1.147621    5.003387    1.105198
  H      1.306521    3.695088   -7.171802
  H      1.415421   -3.380612    4.056798
  H      1.445121    4.551588   -5.788702
  H      1.554821    1.368688   -6.251202
  H      1.753821    0.046587    5.508598
  H      1.861421    3.298287   -1.605402
  H      1.904721    2.987687    2.626598
  H      2.511521    4.783787   -7.003102
  H      2.578121   -3.031312    5.148498
  H      2.753821   -1.587312    3.383998
  H      2.822421   -2.325812   -4.097302
  H      2.885721    5.291687   -1.554602
  H      2.985421   -0.972612    5.840498
  H      3.168621    0.187087    4.705898
  H      3.331521    1.054388    0.267398
  H      3.397921    2.000787   -7.772802
  H      3.417421    3.326087   -5.137202
  H      3.521521    0.990687   -4.125202
  H      3.677421   -1.390312    0.442198
  H      3.943121    4.812688   -0.406502
  H      4.047821   -2.684712   -6.217302
  H      4.207421    4.428387   -1.971102
  H      4.411421    3.231087   -7.419302
  H      4.430221   -4.106113   -4.196302
  H      4.561521    1.801687   -6.644902
  H      4.583421   -3.058812   -0.930702
  H      4.918621   -0.053012    1.794598
  H      5.271121    0.043388   -1.515602
  H      5.490921   -0.886713   -6.398602
  H      5.598621   -4.166512   -5.335202
  H      5.714921   -2.949812    0.241198
  H      5.809721   -3.255912   -3.996602
  H      5.953521   -2.211112   -1.195202
  H      5.987921   -1.267613    1.577798
  H      6.055421   -1.120212   -4.884402
  H      6.114621    0.099087    0.693698
  H      6.435521   -2.177112   -6.069402
  H     -0.081479   -5.174912   -1.517402
  H     -0.306579    5.700187    1.361098
  H     -0.307279    3.304488    4.471998
  H     -0.527079    1.377787    2.779898
  H     -0.530079    2.036087   -2.396802
  H     -0.773579    4.848187    4.216098
  H     -0.896579   -3.788312   -4.554802
  H     -0.954279    3.642687    2.104798
  H     -1.238579   -5.191212   -2.669102
  H     -1.505079   -4.419912   -1.255002
  H     -1.538379    2.923688   -4.530402
  H     -1.737979   -2.882312    7.130298
  H     -1.758979   -0.602213    6.102298
  H     -1.892879   -3.779113    5.774798
  H     -2.069279   -2.367012   -2.704702
  H     -2.235679   -2.817613    1.463698
  H     -2.516279    2.794487   -3.229302
  H     -2.555779    1.653687   -4.396602
  H     -3.011079   -3.890213    6.959298
  H     -3.036179    3.118887    3.887198
  H     -3.156179   -4.831313    2.706798
  H     -3.387679   -0.276112   -0.359402
  H     -3.522779   -4.607513    0.429598
  H     -3.608479   -0.972412    7.553798
  H     -3.703079   -2.540012    5.084198
  H     -3.783179   -0.206113    4.081198
  H     -3.966479    2.035887   -0.634502
  H     -4.263879   -3.690112    3.076098
  H     -4.301779    3.633887    5.853598
  H     -4.676979   -2.191912    7.361398
  H     -4.746979   -5.146412    2.517798
  H     -4.761379   -0.873612    6.401898
  H     -4.897679    3.685587    0.638098
  H     -5.170579    2.256787    5.733398
  H     -5.267479   -2.959612   -0.385402
  H     -5.333179    0.589187   -1.874802
  H     -5.438079    3.484488    4.690798
  H     -5.469679    0.598187    1.389698
  H     -5.662979   -4.516813   -0.094702
  H     -5.995079    3.438587   -0.545302
  H     -5.995479   -3.368812    1.017598
  H     -6.230679    2.790587    0.934598
  H     -6.388179    1.817287   -1.664002
  H     -6.460179    0.504088   -0.696602

 Total Charge           Charge          ....    0
 Multiplicity           Mult            ....    1
 Number of Electrons    NEL             ....  600
 Basis Dimension        Dim             .... 3600

ORBITAL ENERGIES
----------------

  NO   OCC          E(Eh)            E(eV)
   0   2.0000     -20.611441      -560.8658
   1   2.0000     -20.609155      -560.8036
   2   2.0000     -20.600170      -560.5591
   3   2.0000     -20.596463      -560.4582
   4   2.0000     -20.595487      -560.4317
   5   2.0000     -20.592586      -560.3528
   6   2.0000     -20.550471      -559.2067
   7   2.0000     -20.540606      -558.9383
   8   2.0000     -20.540546      -558.9367
   9   2.0000     -20.538733      -558.8873
  10   2.0000     -20.533949      -558.7572
  11   2.0000     -20.527875      -558.5919
  12   2.0000     -20.525766      -558.5345
  13   2.0000     -20.518860      -558.3466
  14   2.0000     -20.512256      -558.1669
  15   2.0000     -20.510615      -558.1222
  16   2.0000     -20.510539      -558.1201
  17   2.0000     -20.505642      -557.9869
  18   2.0000     -15.585207      -424.0950
  19   2.0000     -15.581886      -424.0047
  20   2.0000     -15.577952      -423.8976
  21   2.0000     -15.574005      -423.7902
  22   2.0000     -15.573943      -423.7885
  23   2.0000     -15.567364      -423.6095
  24   2.0000     -11.388115      -309.8864
  25   2.0000     -11.378990      -309.6381
  26   2.0000     -11.376246      -309.5634
  27   2.0000     -11.373491      -309.4884
  28   2.0000     -11.373238      -309.4815
  29   2.0000     -11.373021      -309.4756
  30   2.0000     -11.369542      -309.3810
  31   2.0000     -11.360070      -309.1232
  32   2.0000     -11.358253      -309.0738
  33   2.0000     -11.350054      -308.8507
  34   2.0000     -11.345458      -308.7256
  35   2.0000     -11.342797      -308.6532
  36   2.0000     -11.304961      -307.6236
  37   2.0000     -11.298737      -307.4543
  38   2.0000     -11.296819      -307.4021
  39   2.0000     -11.292687      -307.2896
  40   2.0000     -11.288467      -307.1748
  41   2.0000     -11.284821      -307.0756
  42   2.0000     -11.278717      -306.9095
  43   2.0000     -11.271592      -306.7156
  44   2.0000     -11.269009      -306.6453
  45   2.0000     -11.266683      -306.5820
  46   2.0000     -11.262620      -306.4715
  47   2.0000     -11.262193      -306.4598
  48   2.0000     -11.226412      -305.4862
  49   2.0000     -11.226276      -305.4825
  50   2.0000     -11.224819      -305.4429
  51   2.0000     -11.222855      -305.3894
  52   2.0000     -11.222242      -305.3727
  53   2.0000     -11.221896      -305.3633
  54   2.0000     -11.213767      -305.1421
  55   2.0000     -11.213609      -305.1378
  56   2.0000     -11.206324      -304.9396
  57   2.0000     -11.205297      -304.9116
  58   2.0000     -11.190956      -304.5214
  59   2.0000     -11.187336      -304.4229
  60   2.0000     -11.184665      -304.3502
  61   2.0000     -11.184236      -304.3385
  62   2.0000     -11.182562      -304.2930
  63   2.0000     -11.181152      -304.2546
  64   2.0000     -11.178869      -304.1925
  65   2.0000     -11.178832      -304.1915
  66   2.0000     -11.178406      -304.1799
  67   2.0000     -11.177511      -304.1555
  68   2.0000     -11.177014      -304.1420
  69   2.0000     -11.174589      -304.0760
  70   2.0000     -11.173068      -304.0346
  71   2.0000     -11.172354      -304.0152
  72   2.0000     -11.172263      -304.0127
  73   2.0000     -11.169936      -303.9494
  74   2.0000     -11.169501      -303.9376
  75   2.0000     -11.167996      -303.8966
  76   2.0000     -11.167678      -303.8880
  77   2.0000     -11.166879      -303.8662
  78   2.0000      -1.496472       -40.7211
  79   2.0000      -1.490799       -40.5667
  80   2.0000      -1.481351       -40.3096
  81   2.0000      -1.476981       -40.1907
  82   2.0000      -1.463352       -39.8198
  83   2.0000      -1.451357       -39.4934
  84   2.0000      -1.404223       -38.2109
  85   2.0000      -1.387938       -37.7677
  86   2.0000      -1.385580       -37.7036
  87   2.0000      -1.380129       -37.5552
  88   2.0000      -1.378348       -37.5067
  89   2.0000      -1.375703       -37.4348
  90   2.0000      -1.375163       -37.4201
  91   2.0000      -1.367070       -37.1999
  92   2.0000      -1.366002       -37.1708
  93   2.0000      -1.358374       -36.9632
  94   2.0000      -1.353963       -36.8432
  95   2.0000      -1.352598       -36.8061
  96   2.0000      -1.254138       -34.1268
  97   2.0000      -1.247323       -33.9414
  98   2.0000      -1.240960       -33.7682
  99   2.0000      -1.237752       -33.6810
 100   2.0000      -1.236280       -33.6409
 101   2.0000      -1.221780       -33.2463
 102   2.0000      -1.121021       -30.5045
 103   2.0000      -1.117886       -30.4192
 104   2.0000      -1.116402       -30.3789
 105   2.0000      -1.105793       -30.0902
 106   2.0000      -1.103222       -30.0202
 107   2.0000      -1.093490       -29.7554
 108   2.0000      -1.092849       -29.7379
 109   2.0000      -1.092605       -29.7313
 110   2.0000      -1.070498       -29.1297
 111   2.0000      -1.068858       -29.0851
 112   2.0000      -1.066655       -29.0252
 113   2.0000      -1.058380       -28.8000
 114   2.0000      -1.022897       -27.8344
 115   2.0000      -1.021352       -27.7924
 116   2.0000      -1.018953       -27.7271
 117   2.0000      -0.993355       -27.0306
 118   2.0000      -0.984863       -26.7995
 119   2.0000      -0.983114       -26.7519
 120   2.0000      -0.970846       -26.4181
 121   2.0000      -0.967176       -26.3182
 122   2.0000      -0.967022       -26.3140
 123   2.0000      -0.964464       -26.2444
 124   2.0000      -0.962579       -26.1931
 125   2.0000      -0.961694       -26.1690
 126   2.0000      -0.960506       -26.1367
 127   2.0000      -0.959944       -26.1214
 128   2.0000      -0.957798       -26.0630
 129   2.0000      -0.957708       -26.0606
 130   2.0000      -0.956027       -26.0148
 131   2.0000      -0.947031       -25.7700
 132   2.0000      -0.917482       -24.9660
 133   2.0000      -0.912213       -24.8226
 134   2.0000      -0.905197       -24.6317
 135   2.0000      -0.856391       -23.3036
 136   2.0000      -0.852920       -23.2091
 137   2.0000      -0.846903       -23.0454
 138   2.0000      -0.842732       -22.9319
 139   2.0000      -0.839810       -22.8524
 140   2.0000      -0.837473       -22.7888
 141   2.0000      -0.828958       -22.5571
 142   2.0000      -0.822428       -22.3794
 143   2.0000      -0.818743       -22.2791
 144   2.0000      -0.810695       -22.0601
 145   2.0000      -0.807425       -21.9711
 146   2.0000      -0.805458       -21.9176
 147   2.0000      -0.803211       -21.8565
 148   2.0000      -0.798073       -21.7167
 149   2.0000      -0.795087       -21.6354
 150   2.0000      -0.790417       -21.5083
 151   2.0000      -0.789371       -21.4799
 152   2.0000      -0.784635       -21.3510
 153   2.0000      -0.781782       -21.2734
 154   2.0000      -0.777291       -21.1512
 155   2.0000      -0.772944       -21.0329
 156   2.0000      -0.748757       -20.3747
 157   2.0000      -0.746311       -20.3082
 158   2.0000      -0.745583       -20.2883
 159   2.0000      -0.743016       -20.2185
 160   2.0000      -0.741226       -20.1698
 161   2.0000      -0.735354       -20.0100
 162   2.0000      -0.729352       -19.8467
 163   2.0000      -0.719872       -19.5887
 164   2.0000      -0.718256       -19.5447
 165   2.0000      -0.716517       -19.4974
 166   2.0000      -0.706392       -19.2219
 167   2.0000      -0.703309       -19.1380
 168   2.0000      -0.698695       -19.0124
 169   2.0000      -0.695121       -18.9152
 170   2.0000      -0.691311       -18.8115
 171   2.0000      -0.686402       -18.6780
 172   2.0000      -0.685219       -18.6457
 173   2.0000      -0.679643       -18.4940
 174   2.0000      -0.675378       -18.3780
 175   2.0000      -0.671914       -18.2837
 176   2.0000      -0.667550       -18.1650
 177   2.0000      -0.665593       -18.1117
 178   2.0000      -0.662790       -18.0354
 179   2.0000      -0.657855       -17.9012
 180   2.0000      -0.656616       -17.8674
 181   2.0000      -0.650589       -17.7034
 182   2.0000      -0.648031       -17.6338
 183   2.0000      -0.643991       -17.5239
 184   2.0000      -0.643437       -17.5088
 185   2.0000      -0.640546       -17.4302
 186   2.0000      -0.637533       -17.3481
 187   2.0000      -0.634328       -17.2610
 188   2.0000      -0.632309       -17.2060
 189   2.0000      -0.631822       -17.1927
 190   2.0000      -0.629473       -17.1288
 191   2.0000      -0.626446       -17.0465
 192   2.0000      -0.624767       -17.0008
 193   2.0000      -0.624406       -16.9909
 194   2.0000      -0.622717       -16.9450
 195   2.0000      -0.620107       -16.8740
 196   2.0000      -0.617145       -16.7934
 197   2.0000      -0.615114       -16.7381
 198   2.0000      -0.614294       -16.7158
 199   2.0000      -0.608956       -16.5705
 200   2.0000      -0.607878       -16.5412
 201   2.0000      -0.606686       -16.5088
 202   2.0000      -0.604928       -16.4609
 203   2.0000      -0.600997       -16.3540
 204   2.0000      -0.600003       -16.3269
 205   2.0000      -0.597303       -16.2534
 206   2.0000      -0.597063       -16.2469
 207   2.0000      -0.591767       -16.1028
 208   2.0000      -0.590474       -16.0676
 209   2.0000      -0.590007       -16.0549
 210   2.0000      -0.588142       -16.0042
 211   2.0000      -0.585546       -15.9335
 212   2.0000      -0.584011       -15.8917
 213   2.0000      -0.582933       -15.8624
 214   2.0000      -0.580412       -15.7938
 215   2.0000      -0.578096       -15.7308
 216   2.0000      -0.577561       -15.7162
 217   2.0000      -0.577115       -15.7041
 218   2.0000      -0.574691       -15.6381
 219   2.0000      -0.573699       -15.6112
 220   2.0000      -0.573277       -15.5996
 221   2.0000      -0.571927       -15.5629
 222   2.0000      -0.570556       -15.5256
 223   2.0000      -0.568905       -15.4807
 224   2.0000      -0.568597       -15.4723
 225   2.0000      -0.567825       -15.4513
 226   2.0000      -0.566634       -15.4189
 227   2.0000      -0.565282       -15.3821
 228   2.0000      -0.564262       -15.3544
 229   2.0000      -0.563344       -15.3294
 230   2.0000      -0.562696       -15.3117
 231   2.0000      -0.561542       -15.2803
 232   2.0000      -0.559860       -15.2346
 233   2.0000      -0.559635       -15.2284
 234   2.0000      -0.558624       -15.2009
 235   2.0000      -0.555779       -15.1235
 236   2.0000      -0.554922       -15.1002
 237   2.0000      -0.553125       -15.0513
 238   2.0000      -0.551924       -15.0186
 239   2.0000      -0.549292       -14.9470
 240   2.0000      -0.544625       -14.8200
 241   2.0000      -0.542915       -14.7735
 242   2.0000      -0.540510       -14.7080
 243   2.0000      -0.536803       -14.6071
 244   2.0000      -0.529713       -14.4142
 245   2.0000      -0.527712       -14.3598
 246   2.0000      -0.520380       -14.1603
 247   2.0000      -0.514690       -14.0054
 248   2.0000      -0.514252       -13.9935
 249   2.0000      -0.513077       -13.9615
 250   2.0000      -0.509607       -13.8671
 251   2.0000      -0.507675       -13.8145
 252   2.0000      -0.507034       -13.7971
 253   2.0000      -0.505694       -13.7606
 254   2.0000      -0.504264       -13.7217
 255   2.0000      -0.502478       -13.6731
 256   2.0000      -0.500919       -13.6307
 257   2.0000      -0.499497       -13.5920
 258   2.0000      -0.498996       -13.5784
 259   2.0000      -0.498088       -13.5537
 260   2.0000      -0.496874       -13.5206
 261   2.0000      -0.494181       -13.4474
 262   2.0000      -0.492368       -13.3980
 263   2.0000      -0.490551       -13.3486
 264   2.0000      -0.489462       -13.3190
 265   2.0000      -0.482274       -13.1233
 266   2.0000      -0.481743       -13.1089
 267   2.0000      -0.480468       -13.0742
 268   2.0000      -0.477187       -12.9849
 269   2.0000      -0.476488       -12.9659
 270   2.0000      -0.474564       -12.9135
 271   2.0000      -0.474058       -12.8998
 272   2.0000      -0.472062       -12.8455
 273   2.0000      -0.470961       -12.8155
 274   2.0000      -0.470002       -12.7894
 275   2.0000      -0.466209       -12.6862
 276   2.0000      -0.464985       -12.6529
 277   2.0000      -0.463892       -12.6231
 278   2.0000      -0.463169       -12.6035
 279   2.0000      -0.462717       -12.5912
 280   2.0000      -0.460417       -12.5286
 281   2.0000      -0.451399       -12.2832
 282   2.0000      -0.450461       -12.2577
 283   2.0000      -0.445789       -12.1305
 284   2.0000      -0.444444       -12.0939
 285   2.0000      -0.444101       -12.0846
 286   2.0000      -0.441875       -12.0240
 287   2.0000      -0.440129       -11.9765
 288   2.0000      -0.429801       -11.6955
 289   2.0000      -0.428279       -11.6541
 290   2.0000      -0.426874       -11.6158
 291   2.0000      -0.423677       -11.5288
 292   2.0000      -0.421637       -11.4733
 293   2.0000      -0.417737       -11.3672
 294   2.0000      -0.404431       -11.0051
 295   2.0000      -0.403466       -10.9789
 296   2.0000      -0.397868       -10.8265
 297   2.0000      -0.396362       -10.7856
 298   2.0000      -0.381801       -10.3893
 299   2.0000      -0.374870       -10.2007
 300   0.0000       0.089702         2.4409
 301   0.0000       0.090335         2.4581
 302   0.0000       0.104149         2.8340
 303   0.0000       0.106320         2.8931
 304   0.0000       0.109314         2.9746

MULLIKEN ATOMIC CHARGES
-----------------------
   0 O :   -0.688314
   1 O :   -0.651398
   2 O :   -0.672523
   3 O :   -0.670808
   4 O :   -0.845611
   5 O :   -0.650767
   6 O :   -0.646989
   7 O :   -0.827695
   8 O :   -0.667289
   9 O :   -0.688320
  10 O :   -0.653062
  11 O :   -0.691741
  12 O :   -0.680323
  13 O :   -0.773804
  14 O :   -0.703289
  15 O :   -0.658075
  16 O :   -0.813599
  17 O :   -0.665002
  18 N :   -0.416571
  19 N :   -0.600151
  20 N :   -0.447105
  21 N :   -0.411130
  22 N :   -0.593109
  23 N :   -0.508710
  24 C :    0.136054
  25 C :    0.459710
  26 C :    0.273975
  27 C :    0.889675
  28 C :    0.890407
  29 C :    0.837117
  30 C :    0.200383
  31 C :    0.126429
  32 C :    0.046150
  33 C :    0.366619
  34 C :    0.139894
  35 C :    0.417770
  36 C :    0.681998
  37 C :    0.091984
  38 C :    0.568193
  39 C :    0.849140
  40 C :    0.148228
  41 C :    0.737392
  42 C :    0.182075
  43 C :    0.411596
  44 C :   -0.028072
  45 C :    0.055569
  46 C :    0.182632
  47 C :    0.162079
  48 C :    0.155047
  49 C :    0.188299
  50 C :    0.205678
  51 C :    0.044401
  52 C :    0.224774
  53 C :    0.050706
  54 C :    0.142074
  55 C :    0.385450
  56 C :    0.367504
  57 C :    0.882627
  58 C :    0.763831
  59 C :    0.803374
  60 C :    0.204903
  61 C :    0.357814
  62 C :    0.159588
  63 C :    0.727220
  64 C :    0.621811
  65 C :    0.137903
  66 C :    0.412134
  67 C :    0.893041
  68 C :    0.719660
  69 C :    0.003088
  70 C :    0.184758
  71 C :    0.178862
  72 C :    0.481297
  73 C :    0.146653
  74 C :    0.042705
  75 C :    0.160282
  76 C :    0.206393
  77 C :    0.153021
  78 H :    0.103165
  79 H :   -0.027779
  80 H :   -0.008318
  81 H :   -0.005963
  82 H :   -0.057871
  83 H :   -0.062563
  84 H :   -0.050752
  85 H :   -0.085457
  86 H :   -0.071589
  87 H :   -0.066585
  88 H :   -0.049088
  89 H :   -0.013322
  90 H :   -0.082229
  91 H :   -0.036405
  92 H :   -0.007646
  93 H :   -0.082154
  94 H :   -0.047862
  95 H :   -0.056348
  96 H :   -0.074382
  97 H :   -0.040464
  98 H :   -0.042053
  99 H :   -0.049397
 100 H :   -0.035630
 101 H :    0.144962
 102 H :   -0.067613
 103 H :   -0.041803
 104 H :    0.156752
 105 H :   -0.018453
 106 H :   -0.041061
 107 H :   -0.044770
 108 H :   -0.009311
 109 H :   -0.045918
 110 H :   -0.068478
 111 H :   -0.033673
 112 H :   -0.042692
 113 H :   -0.011043
 114 H :   -0.109882
 115 H :   -0.045618
 116 H :   -0.044785
 117 H :   -0.035961
 118 H :   -0.051229
 119 H :   -0.054714
 120 H :   -0.054257
 121 H :   -0.052876
 122 H :   -0.058927
 123 H :   -0.048278
 124 H :   -0.041053
 125 H :   -0.043852
 126 H :    0.001565
 127 H :    0.136041
 128 H :   -0.037140
 129 H :   -0.069975
 130 H :   -0.053421
 131 H :   -0.014223
 132 H :   -0.049401
 133 H :   -0.075559
 134 H :   -0.045707
 135 H :   -0.077567
 136 H :   -0.098342
 137 H :   -0.014751
 138 H :   -0.113706
 139 H :    0.004030
 140 H :   -0.052968
 141 H :   -0.054940
 142 H :   -0.052622
 143 H :   -0.030947
 144 H :   -0.051145
 145 H :    0.156333
 146 H :   -0.077070
 147 H :   -0.060384
 148 H :   -0.038573
 149 H :    0.125755
 150 H :   -0.038305
 151 H :   -0.022808
 152 H :   -0.022019
 153 H :   -0.047049
 154 H :   -0.050312
 155 H :   -0.046543
 156 H :   -0.054155
 157 H :   -0.045564
 158 H :   -0.044486
 159 H :   -0.014340
 160 H :   -0.029339
 161 H :   -0.125443
 162 H :   -0.040336
 163 H :   -0.044396
 164 H :   -0.044028
 165 H :   -0.061222
 166 H :   -0.054146
 167 H :   -0.062081
Sum of atomic charges:   -0.0000000

LOEWDIN ATOMIC CHARGES
----------------------
   0 O :    0.003848
   1 O :   -0.042377
   2 O :   -0.099890
   3 O :   -0.170279
   4 O :   -0.199959
   5 O :   -0.054879
   6 O :   -0.002363
   7 O :   -0.233131
   8 O :    0.040542
   9 O :    0.079201
  10 O :   -0.082696
  11 O :   -0.101581
  12 O :   -0.150434
  13 O :   -0.146742
  14 O :   -0.043576
  15 O :    0.083917
  16 O :   -0.186322
  17 O :    0.042992
  18 N :    0.197166
  19 N :    0.163253
  20 N :    0.207598
  21 N :    0.209177
  22 N :    0.192526
  23 N :    0.183903
  24 C :    0.144312
  25 C :    0.078201
  26 C :    0.076708
  27 C :   -0.036928
  28 C :   -0.121424
  29 C :   -0.020075
  30 C :    0.126708
  31 C :    0.142104
  32 C :    0.047512
  33 C :    0.031052
  34 C :    0.146712
  35 C :    0.116073
  36 C :   -0.008367
  37 C :    0.078092
  38 C :    0.059978
  39 C :   -0.084447
  40 C :    0.161782
  41 C :   -0.002180
  42 C :    0.143859
  43 C :    0.060936
  44 C :    0.069988
  45 C :    0.066853
  46 C :    0.137996
  47 C :    0.146738
  48 C :    0.139043
  49 C :    0.131446
  50 C :    0.148877
  51 C :    0.079040
  52 C :    0.136038
  53 C :    0.075141
  54 C :    0.146375
  55 C :    0.111156
  56 C :    0.036886
  57 C :   -0.087979
  58 C :   -0.070475
  59 C :   -0.114626
  60 C :    0.152505
  61 C :    0.051198
  62 C :    0.124750
  63 C :   -0.089670
  64 C :    0.052318
  65 C :    0.070218
  66 C :    0.105849
  67 C :   -0.149594
  68 C :    0.029596
  69 C :    0.068258
  70 C :    0.149983
  71 C :    0.146546
  72 C :    0.030527
  73 C :    0.172272
  74 C :    0.067893
  75 C :    0.137973
  76 C :    0.125440
  77 C :    0.156289
  78 H :   -0.020329
  79 H :   -0.044632
  80 H :   -0.032383
  81 H :   -0.060245
  82 H :   -0.041356
  83 H :   -0.039966
  84 H :   -0.036412
  85 H :   -0.035650
  86 H :   -0.042272
  87 H :   -0.043036
  88 H :   -0.034189
  89 H :   -0.042832
  90 H :   -0.030221
  91 H :   -0.035568
  92 H :   -0.039776
  93 H :   -0.032107
  94 H :   -0.044489
  95 H :   -0.035439
  96 H :   -0.050376
  97 H :   -0.035349
  98 H :   -0.033641
  99 H :   -0.039221
 100 H :   -0.041694
 101 H :   -0.034358
 102 H :   -0.038708
 103 H :   -0.060775
 104 H :   -0.066442
 105 H :   -0.053812
 106 H :   -0.032906
 107 H :   -0.051682
 108 H :   -0.028041
 109 H :   -0.045046
 110 H :   -0.046226
 111 H :   -0.045908
 112 H :   -0.043128
 113 H :   -0.038243
 114 H :   -0.035261
 115 H :   -0.042817
 116 H :   -0.036970
 117 H :   -0.041297
 118 H :   -0.035405
 119 H :   -0.038722
 120 H :   -0.039344
 121 H :   -0.033082
 122 H :   -0.036300
 123 H :   -0.033398
 124 H :   -0.036565
 125 H :   -0.039312
 126 H :   -0.038648
 127 H :   -0.021570
 128 H :   -0.042600
 129 H :   -0.042255
 130 H :   -0.039261
 131 H :   -0.061824
 132 H :   -0.036557
 133 H :   -0.043392
 134 H :   -0.035057
 135 H :   -0.036378
 136 H :   -0.032816
 137 H :   -0.034825
 138 H :   -0.036551
 139 H :   -0.029872
 140 H :   -0.032168
 141 H :   -0.033256
 142 H :   -0.035651
 143 H :   -0.041803
 144 H :   -0.039200
 145 H :   -0.038881
 146 H :   -0.060906
 147 H :   -0.037223
 148 H :   -0.059654
 149 H :   -0.044169
 150 H :   -0.053370
 151 H :   -0.040198
 152 H :   -0.033501
 153 H :   -0.044601
 154 H :   -0.044385
 155 H :   -0.045046
 156 H :   -0.041130
 157 H :   -0.036637
 158 H :   -0.037889
 159 H :   -0.040415
 160 H :   -0.038751
 161 H :   -0.028909
 162 H :   -0.037535
 163 H :   -0.034434
 164 H :   -0.035054
 165 H :   -0.030240
 166 H :   -0.043956
 167 H :   -0.039852

  Mayer bond orders larger than 0.100000
B(  0-O , 27-C ) :   0.9211 B(  0-O , 55-C ) :   0.6352 B(  1-O , 28-C ) :   1.8183
B(  2-O , 27-C ) :   1.8267 B(  3-O , 36-C ) :   1.7388 B(  4-O , 29-C ) :   1.4524
B(  5-O , 39-C ) :   1.8146 B(  6-O , 28-C ) :   0.9071 B(  6-O , 35-C ) :   0.6852
B(  7-O , 41-C ) :   1.4888 B(  8-O , 38-C ) :   0.6497 B(  8-O , 39-C ) :   0.9437
B(  9-O , 25-C ) :   0.5972 B(  9-O , 57-C ) :   0.9511 B( 10-O , 59-C ) :   1.8444
B( 11-O , 57-C ) :   1.8156 B( 12-O , 63-C ) :   1.7267 B( 13-O , 58-C ) :   1.5427
B( 14-O , 67-C ) :   1.7487 B( 15-O , 59-C ) :   1.0383 B( 15-O , 64-C ) :   0.5524
B( 16-O , 68-C ) :   1.5266 B( 17-O , 66-C ) :   0.6709 B( 17-O , 67-C ) :   0.9424
B( 18-N , 26-C ) :   0.8254 B( 18-N , 29-C ) :   1.2880 B( 18-N ,127-H ) :   1.0046
B( 19-N , 33-C ) :   0.7898 B( 19-N , 36-C ) :   1.1042 B( 19-N ,104-H ) :   1.0243
B( 20-N , 41-C ) :   1.3227 B( 20-N , 43-C ) :   0.8251 B( 20-N ,101-H ) :   1.0153
B( 21-N , 56-C ) :   0.8258 B( 21-N , 58-C ) :   1.3386 B( 21-N , 78-H ) :   1.0219
B( 22-N , 61-C ) :   0.7575 B( 22-N , 63-C ) :   1.1846 B( 22-N ,149-H ) :   1.0399
B( 23-N , 68-C ) :   1.1579 B( 23-N , 72-C ) :   0.8372 B( 23-N ,145-H ) :   1.0258
B( 24-C , 51-C ) :   0.9952 B( 24-C , 84-H ) :   1.0076 B( 24-C , 86-H ) :   1.0060
B( 24-C ,125-H ) :   1.0003 B( 25-C , 29-C ) :   0.9691 B( 25-C , 32-C ) :   0.9811
B( 25-C , 80-H ) :   1.0070 B( 26-C , 28-C ) :   0.9489 B( 26-C , 51-C ) :   0.9652
B( 26-C , 93-H ) :   1.0656 B( 27-C , 33-C ) :   0.9443 B( 30-C , 32-C ) :   0.9900
B( 30-C , 85-H ) :   1.0028 B( 30-C , 88-H ) :   1.0006 B( 30-C , 95-H ) :   0.9908
B( 31-C , 37-C ) :   0.9730 B( 31-C , 87-H ) :   1.0063 B( 31-C , 89-H ) :   1.0124
B( 31-C , 94-H ) :   1.0027 B( 32-C , 34-C ) :   0.9908 B( 32-C , 96-H ) :   0.9985
B( 33-C , 37-C ) :   1.0005 B( 33-C , 90-H ) :   1.0351 B( 34-C , 91-H ) :   1.0094
B( 34-C , 99-H ) :   0.9952 B( 34-C ,100-H ) :   0.9996 B( 35-C , 40-C ) :   0.9782
B( 35-C , 41-C ) :   0.9703 B( 35-C , 92-H ) :   0.9959 B( 36-C , 38-C ) :   0.9664
B( 37-C , 42-C ) :   0.9670 B( 37-C ,103-H ) :   1.0110 B( 38-C , 44-C ) :   0.9611
B( 38-C , 97-H ) :   0.9940 B( 39-C , 43-C ) :   0.9263 B( 40-C , 98-H ) :   1.0035
B( 40-C ,106-H ) :   1.0042 B( 40-C ,108-H ) :   1.0047 B( 42-C ,102-H ) :   1.0070
B( 42-C ,109-H ) :   1.0046 B( 42-C ,111-H ) :   0.9969 B( 43-C , 45-C ) :   0.9815
B( 43-C ,114-H ) :   1.0566 B( 44-C , 46-C ) :   0.9831 B( 44-C , 49-C ) :   0.9918
B( 44-C ,107-H ) :   1.0159 B( 45-C , 47-C ) :   0.9561 B( 45-C , 48-C ) :   0.9844
B( 45-C ,105-H ) :   1.0126 B( 46-C ,110-H ) :   0.9994 B( 46-C ,116-H ) :   1.0009
B( 46-C ,118-H ) :   1.0103 B( 47-C ,112-H ) :   1.0037 B( 47-C ,117-H ) :   1.0022
B( 47-C ,119-H ) :   1.0107 B( 48-C ,113-H ) :   1.0038 B( 48-C ,120-H ) :   0.9972
B( 48-C ,122-H ) :   1.0034 B( 49-C ,115-H ) :   0.9941 B( 49-C ,121-H ) :   1.0084
B( 49-C ,123-H ) :   0.9922 B( 50-C , 53-C ) :   0.9624 B( 50-C , 79-H ) :   0.9969
B( 50-C , 82-H ) :   0.9981 B( 50-C ,130-H ) :   1.0039 B( 51-C , 52-C ) :   0.9667
B( 51-C ,131-H ) :   1.0091 B( 52-C , 83-H ) :   0.9970 B( 52-C ,126-H ) :   0.9988
B( 52-C ,129-H ) :   0.9973 B( 53-C , 54-C ) :   0.9845 B( 53-C , 56-C ) :   0.9958
B( 53-C , 81-H ) :   1.0126 B( 54-C ,124-H ) :   1.0038 B( 54-C ,132-H ) :   1.0110
B( 54-C ,133-H ) :   0.9951 B( 55-C , 58-C ) :   0.9520 B( 55-C , 60-C ) :   1.0036
B( 55-C ,128-H ) :   1.0268 B( 56-C , 59-C ) :   0.9215 B( 56-C ,138-H ) :   1.0577
B( 57-C , 61-C ) :   0.9516 B( 60-C ,134-H ) :   0.9959 B( 60-C ,140-H ) :   0.9904
B( 60-C ,141-H ) :   0.9997 B( 61-C , 65-C ) :   0.9725 B( 61-C ,136-H ) :   1.0511
B( 62-C , 65-C ) :   0.9845 B( 62-C ,135-H ) :   1.0016 B( 62-C ,137-H ) :   1.0092
B( 62-C ,142-H ) :   0.9936 B( 63-C , 66-C ) :   0.9766 B( 64-C , 68-C ) :   1.0123
B( 64-C , 69-C ) :   0.9487 B( 64-C ,139-H ) :   0.9941 B( 65-C , 71-C ) :   0.9690
B( 65-C ,148-H ) :   0.9942 B( 66-C , 73-C ) :   0.9799 B( 66-C ,143-H ) :   1.0122
B( 67-C , 72-C ) :   0.9408 B( 69-C , 70-C ) :   0.9813 B( 69-C , 75-C ) :   0.9976
B( 69-C ,146-H ) :   1.0020 B( 70-C ,144-H ) :   1.0018 B( 70-C ,151-H ) :   1.0061
B( 70-C ,154-H ) :   0.9959 B( 71-C ,147-H ) :   1.0082 B( 71-C ,153-H ) :   1.0040
B( 71-C ,155-H ) :   1.0006 B( 72-C , 74-C ) :   0.9325 B( 72-C ,161-H ) :   1.0471
B( 73-C ,152-H ) :   1.0111 B( 73-C ,157-H ) :   1.0085 B( 73-C ,160-H ) :   1.0038
B( 74-C , 76-C ) :   0.9793 B( 74-C , 77-C ) :   0.9937 B( 74-C ,150-H ) :   1.0038
B( 75-C ,158-H ) :   1.0028 B( 75-C ,162-H ) :   0.9932 B( 75-C ,164-H ) :   1.0064
B( 76-C ,156-H ) :   0.9948 B( 76-C ,163-H ) :   0.9969 B( 76-C ,165-H ) :   1.0050
B( 77-C ,159-H ) :   1.0066 B( 77-C ,166-H ) :   0.9988 B( 77-C ,167-H ) :   1.0030

FINAL SINGLE POINT ENERGY     -3772.569228714277

DIPOLE MOMENT
-------------
                                X             Y             Z
Electronic contribution:     -4.94980      14.37755      -4.50318
Nuclear contribution   :      4.74110     -14.78988       4.90468
                        -----------------------------------------
Total Dipole Moment    :     -0.20870      -0.41233       0.40150
                        -----------------------------------------
Magnitude (a.u.)       :      0.61219
Magnitude (Debye)      :      1.55606

Rotational constants in cm-1:     0.001327     0.000669     0.000660
Rotational constants in MHz :    39.769063    20.052824    19.784539

                             ****ORCA TERMINATED NORMALLY****
TOTAL RUN TIME: 0 days 1 hours 6 minutes 45 seconds 263 msec
