                         Program Version 5.0.2 -  RELEASE  -
|  1> !rhf pc-3 nori defgrid3 verytightscf
|  2> %pal nprocs 128 end
|  3> %maxcore 5000
|  4>
|  5> %scf
|  6>   maxiter 120
|  7> end
|  8>
|  9> *xyzfile 0 1 valinomycine.xyz
| 10>
| 11>                          ****END OF INPUT****

CARTESIAN COORDINATES (ANGSTROEM)
---------------------------------
  O      0.186321    1.146588   -4.103502
  O      0.368321    2.264087   -0.090002
  O      1.043021    3.226387   -3.789802
  O      1.940321   -0.974512   -6.133202
  O      2.312021    0.411988    1.916798
  O      2.331221   -1.005513   -2.178402
  O      2.427421    3.122887    0.381298
  O      4.082321    2.046788   -2.639602
  O      4.246421   -1.088313   -3.365902
  O     -0.290279   -0.560612    4.091098
  O     -0.665779   -1.812612    0.071898
  O     -1.276979   -2.495512    3.669998
  O     -1.992679    1.757087    5.759898
  O     -2.558979    0.101587   -2.220002
  O     -2.574979    1.612288    2.034198
  O     -2.733579   -2.536912   -0.471002
  O     -4.208979   -1.315913    2.528398
  O     -4.409879    1.788188    3.129998
  N      0.463221    1.477788    2.683098
  N      2.914021    0.743088   -4.879902
  N      3.680621    1.012088   -0.668702
  N     -0.686279   -0.943412   -2.702702
  N     -3.055079    0.049888    4.717098
  N     -3.932579   -0.333012    0.477198
  C      0.457821    5.223388    1.794998
  C      0.824921   -0.881413    3.241698
  C      1.038321    2.760788    2.181798
  C      1.070421    2.150287   -4.364202
  C      1.199421    2.626288    0.663398
  C      1.221021    0.411988    2.539898
  C      1.738021   -2.702412    4.717098
  C      1.951221    4.105887   -6.527102
  C      2.004421   -1.440112    4.029498
  C      2.054821    1.736387   -5.467202
  C      2.524421   -0.457112    5.118098
  C      2.713721    3.257388   -1.084102
  C      2.740621   -0.633012   -5.238002
  C      2.902721    2.957387   -5.911202
  C      3.466421   -1.647012   -4.450202
  C      3.502121   -0.808912   -2.273002
  C      3.506621    4.561187   -1.270302
  C      3.517321    2.046788   -1.485102
  C      3.912821    2.450387   -7.042802
  C      4.375921   -0.198513   -1.141402
  C      4.505221   -2.381712   -5.381202
  C      4.564321   -1.150413    0.047498
  C      5.141221   -3.581913   -4.665002
  C      5.269521   -2.464513   -0.511102
  C      5.475521   -0.539913    1.121798
  C      5.722621   -1.574612   -5.710702
  C     -0.032779   -3.509512   -4.135102
  C     -0.055979    3.909287    2.453898
  C     -0.082979    4.157587    4.000898
  C     -0.236079   -3.343913   -2.545102
  C     -0.816579   -4.647712   -1.943502
  C     -0.889279    1.498387   -3.159602
  C     -1.210379   -2.174713   -2.230002
  C     -1.239779   -1.440112    4.272998
  C     -1.422779    0.132587   -2.631102
  C     -1.507879   -2.154012   -0.726002
  C     -1.967079    2.284788   -3.891502
  C     -2.256279   -0.974512    5.318698
  C     -2.389379   -3.271513    6.478898
  C     -2.846379    1.343187    4.989198
  C     -3.051479   -2.661012    0.906898
  C     -3.164879   -2.185112    5.848698
  C     -3.634779    2.388288    4.215698
  C     -3.730679    1.446687    2.052798
  C     -3.760479   -1.409112    1.350998
  C     -3.972979   -3.892313    0.964198
  C     -4.041379   -4.440713    2.453898
  C     -4.143079   -1.491812    6.887098
  C     -4.584679    0.846588    0.995698
  C     -4.741179    2.998787    5.218398
  C     -4.823679    1.819187   -0.167302
  C     -5.343279   -3.664712    0.319698
  C     -5.544079    3.029787    0.247998
  C     -5.848679    1.115587   -1.198702
  H      0.170121   -0.929813   -3.218802
  H      0.261321   -2.637612   -4.526602
  H      0.549421   -1.551912    2.552898
  H      0.653021   -3.154113   -2.128602
  H      0.663121   -4.205513   -4.311902
  H      0.814421    4.478887    4.303198
  H      0.862921    5.811587    2.494998
  H      1.038121   -2.560112    5.416998
  H      1.147621    5.003387    1.105198
  H      1.306521    3.695088   -7.171802
  H      1.415421   -3.380612    4.056798
  H      1.445121    4.551588   -5.788702
  H      1.554821    1.368688   -6.251202
  H      1.753821    0.046587    5.508598
  H      1.861421    3.298287   -1.605402
  H      1.904721    2.987687    2.626598
  H      2.511521    4.783787   -7.003102
  H      2.578121   -3.031312    5.148498
  H      2.753821   -1.587312    3.383998
  H      2.822421   -2.325812   -4.097302
  H      2.885721    5.291687   -1.554602
  H      2.985421   -0.972612    5.840498
  H      3.168621    0.187087    4.705898
  H      3.331521    1.054388    0.267398
  H      3.397921    2.000787   -7.772802
  H      3.417421    3.326087   -5.137202
  H      3.521521    0.990687   -4.125202
  H      3.677421   -1.390312    0.442198
  H      3.943121    4.812688   -0.406502
  H      4.047821   -2.684712   -6.217302
  H      4.207421    4.428387   -1.971102
  H      4.411421    3.231087   -7.419302
  H      4.430221   -4.106113   -4.196302
  H      4.561521    1.801687   -6.644902
  H      4.583421   -3.058812   -0.930702
  H      4.918621   -0.053012    1.794598
  H      5.271121    0.043388   -1.515602
  H      5.490921   -0.886713   -6.398602
  H      5.598621   -4.166512   -5.335202
  H      5.714921   -2.949812    0.241198
  H      5.809721   -3.255912   -3.996602
  H      5.953521   -2.211112   -1.195202
  H      5.987921   -1.267613    1.577798
  H      6.055421   -1.120212   -4.884402
  H      6.114621    0.099087    0.693698
  H      6.435521   -2.177112   -6.069402
  H     -0.081479   -5.174912   -1.517402
  H     -0.306579    5.700187    1.361098
  H     -0.307279    3.304488    4.471998
  H     -0.527079    1.377787    2.779898
  H     -0.530079    2.036087   -2.396802
  H     -0.773579    4.848187    4.216098
  H     -0.896579   -3.788312   -4.554802
  H     -0.954279    3.642687    2.104798
  H     -1.238579   -5.191212   -2.669102
  H     -1.505079   -4.419912   -1.255002
  H     -1.538379    2.923688   -4.530402
  H     -1.737979   -2.882312    7.130298
  H     -1.758979   -0.602213    6.102298
  H     -1.892879   -3.779113    5.774798
  H     -2.069279   -2.367012   -2.704702
  H     -2.235679   -2.817613    1.463698
  H     -2.516279    2.794487   -3.229302
  H     -2.555779    1.653687   -4.396602
  H     -3.011079   -3.890213    6.959298
  H     -3.036179    3.118887    3.887198
  H     -3.156179   -4.831313    2.706798
  H     -3.387679   -0.276112   -0.359402
  H     -3.522779   -4.607513    0.429598
  H     -3.608479   -0.972412    7.553798
  H     -3.703079   -2.540012    5.084198
  H     -3.783179   -0.206113    4.081198
  H     -3.966479    2.035887   -0.634502
  H     -4.263879   -3.690112    3.076098
  H     -4.301779    3.633887    5.853598
  H     -4.676979   -2.191912    7.361398
  H     -4.746979   -5.146412    2.517798
  H     -4.761379   -0.873612    6.401898
  H     -4.897679    3.685587    0.638098
  H     -5.170579    2.256787    5.733398
  H     -5.267479   -2.959612   -0.385402
  H     -5.333179    0.589187   -1.874802
  H     -5.438079    3.484488    4.690798
  H     -5.469679    0.598187    1.389698
  H     -5.662979   -4.516813   -0.094702
  H     -5.995079    3.438587   -0.545302
  H     -5.995479   -3.368812    1.017598
  H     -6.230679    2.790587    0.934598
  H     -6.388179    1.817287   -1.664002
  H     -6.460179    0.504088   -0.696602

 Total Charge           Charge          ....    0
 Multiplicity           Mult            ....    1
 Number of Electrons    NEL             ....  600
 Basis Dimension        Dim             .... 8052

ORBITAL ENERGIES
----------------

  NO   OCC          E(Eh)            E(eV)
   0   2.0000     -20.615851      -560.9858
   1   2.0000     -20.613931      -560.9336
   2   2.0000     -20.604821      -560.6857
   3   2.0000     -20.600948      -560.5803
   4   2.0000     -20.600522      -560.5687
   5   2.0000     -20.597181      -560.4778
   6   2.0000     -20.555214      -559.3358
   7   2.0000     -20.545397      -559.0687
   8   2.0000     -20.545380      -559.0682
   9   2.0000     -20.543556      -559.0186
  10   2.0000     -20.538649      -558.8850
  11   2.0000     -20.532766      -558.7250
  12   2.0000     -20.530337      -558.6589
  13   2.0000     -20.523482      -558.4723
  14   2.0000     -20.517066      -558.2978
  15   2.0000     -20.515728      -558.2613
  16   2.0000     -20.515184      -558.2465
  17   2.0000     -20.510476      -558.1184
  18   2.0000     -15.587729      -424.1637
  19   2.0000     -15.584105      -424.0650
  20   2.0000     -15.580403      -423.9643
  21   2.0000     -15.576790      -423.8660
  22   2.0000     -15.576404      -423.8555
  23   2.0000     -15.569455      -423.6664
  24   2.0000     -11.388071      -309.8852
  25   2.0000     -11.379126      -309.6418
  26   2.0000     -11.376243      -309.5633
  27   2.0000     -11.373554      -309.4901
  28   2.0000     -11.373296      -309.4831
  29   2.0000     -11.373011      -309.4754
  30   2.0000     -11.370002      -309.3935
  31   2.0000     -11.360631      -309.1385
  32   2.0000     -11.358881      -309.0909
  33   2.0000     -11.350667      -308.8673
  34   2.0000     -11.345990      -308.7401
  35   2.0000     -11.343379      -308.6690
  36   2.0000     -11.305681      -307.6432
  37   2.0000     -11.299405      -307.4724
  38   2.0000     -11.297781      -307.4283
  39   2.0000     -11.293355      -307.3078
  40   2.0000     -11.289394      -307.2000
  41   2.0000     -11.285665      -307.0986
  42   2.0000     -11.279733      -306.9371
  43   2.0000     -11.272580      -306.7425
  44   2.0000     -11.270059      -306.6739
  45   2.0000     -11.267514      -306.6046
  46   2.0000     -11.263637      -306.4991
  47   2.0000     -11.263120      -306.4851
  48   2.0000     -11.227590      -305.5183
  49   2.0000     -11.227465      -305.5148
  50   2.0000     -11.226186      -305.4801
  51   2.0000     -11.224320      -305.4293
  52   2.0000     -11.223570      -305.4089
  53   2.0000     -11.223319      -305.4020
  54   2.0000     -11.215247      -305.1824
  55   2.0000     -11.214992      -305.1755
  56   2.0000     -11.207955      -304.9840
  57   2.0000     -11.205677      -304.9220
  58   2.0000     -11.191592      -304.5387
  59   2.0000     -11.187910      -304.4385
  60   2.0000     -11.185092      -304.3618
  61   2.0000     -11.184779      -304.3533
  62   2.0000     -11.183019      -304.3054
  63   2.0000     -11.181642      -304.2679
  64   2.0000     -11.179551      -304.2111
  65   2.0000     -11.179493      -304.2095
  66   2.0000     -11.178904      -304.1935
  67   2.0000     -11.178227      -304.1750
  68   2.0000     -11.177740      -304.1618
  69   2.0000     -11.175251      -304.0940
  70   2.0000     -11.173654      -304.0506
  71   2.0000     -11.172959      -304.0317
  72   2.0000     -11.172908      -304.0303
  73   2.0000     -11.170622      -303.9681
  74   2.0000     -11.170210      -303.9569
  75   2.0000     -11.168647      -303.9143
  76   2.0000     -11.168432      -303.9085
  77   2.0000     -11.167545      -303.8844
  78   2.0000      -1.495262       -40.6882
  79   2.0000      -1.489705       -40.5369
  80   2.0000      -1.480134       -40.2765
  81   2.0000      -1.476037       -40.1650
  82   2.0000      -1.462268       -39.7903
  83   2.0000      -1.450344       -39.4659
  84   2.0000      -1.403452       -38.1899
  85   2.0000      -1.386939       -37.7405
  86   2.0000      -1.384506       -37.6743
  87   2.0000      -1.379218       -37.5304
  88   2.0000      -1.377449       -37.4823
  89   2.0000      -1.374885       -37.4125
  90   2.0000      -1.374155       -37.3927
  91   2.0000      -1.366118       -37.1740
  92   2.0000      -1.365006       -37.1437
  93   2.0000      -1.357495       -36.9393
  94   2.0000      -1.353119       -36.8202
  95   2.0000      -1.351676       -36.7810
  96   2.0000      -1.253474       -34.1088
  97   2.0000      -1.246513       -33.9193
  98   2.0000      -1.240247       -33.7488
  99   2.0000      -1.236977       -33.6599
 100   2.0000      -1.235577       -33.6218
 101   2.0000      -1.220960       -33.2240
 102   2.0000      -1.120328       -30.4857
 103   2.0000      -1.117261       -30.4022
 104   2.0000      -1.115855       -30.3640
 105   2.0000      -1.105276       -30.0761
 106   2.0000      -1.102702       -30.0061
 107   2.0000      -1.093024       -29.7427
 108   2.0000      -1.092350       -29.7244
 109   2.0000      -1.092106       -29.7177
 110   2.0000      -1.069936       -29.1144
 111   2.0000      -1.068252       -29.0686
 112   2.0000      -1.065884       -29.0042
 113   2.0000      -1.057832       -28.7851
 114   2.0000      -1.022139       -27.8138
 115   2.0000      -1.020664       -27.7737
 116   2.0000      -1.018319       -27.7099
 117   2.0000      -0.992683       -27.0123
 118   2.0000      -0.984235       -26.7824
 119   2.0000      -0.982453       -26.7339
 120   2.0000      -0.970289       -26.4029
 121   2.0000      -0.966895       -26.3106
 122   2.0000      -0.966715       -26.3057
 123   2.0000      -0.964043       -26.2329
 124   2.0000      -0.962157       -26.1816
 125   2.0000      -0.961483       -26.1633
 126   2.0000      -0.960229       -26.1291
 127   2.0000      -0.959604       -26.1122
 128   2.0000      -0.957432       -26.0530
 129   2.0000      -0.957295       -26.0493
 130   2.0000      -0.955689       -26.0056
 131   2.0000      -0.946828       -25.7645
 132   2.0000      -0.916755       -24.9462
 133   2.0000      -0.911587       -24.8055
 134   2.0000      -0.904584       -24.6150
 135   2.0000      -0.855700       -23.2848
 136   2.0000      -0.852283       -23.1918
 137   2.0000      -0.846319       -23.0295
 138   2.0000      -0.842219       -22.9179
 139   2.0000      -0.839377       -22.8406
 140   2.0000      -0.836956       -22.7747
 141   2.0000      -0.828339       -22.5403
 142   2.0000      -0.822034       -22.3687
 143   2.0000      -0.818300       -22.2671
 144   2.0000      -0.810121       -22.0445
 145   2.0000      -0.806828       -21.9549
 146   2.0000      -0.804856       -21.9012
 147   2.0000      -0.802633       -21.8408
 148   2.0000      -0.797475       -21.7004
 149   2.0000      -0.794483       -21.6190
 150   2.0000      -0.789778       -21.4910
 151   2.0000      -0.788732       -21.4625
 152   2.0000      -0.783993       -21.3335
 153   2.0000      -0.781173       -21.2568
 154   2.0000      -0.776569       -21.1315
 155   2.0000      -0.772488       -21.0205
 156   2.0000      -0.748049       -20.3555
 157   2.0000      -0.745642       -20.2900
 158   2.0000      -0.744870       -20.2689
 159   2.0000      -0.742363       -20.2007
 160   2.0000      -0.740573       -20.1520
 161   2.0000      -0.734656       -19.9910
 162   2.0000      -0.728711       -19.8292
 163   2.0000      -0.719239       -19.5715
 164   2.0000      -0.717668       -19.5287
 165   2.0000      -0.715870       -19.4798
 166   2.0000      -0.705808       -19.2060
 167   2.0000      -0.702730       -19.1222
 168   2.0000      -0.698089       -18.9960
 169   2.0000      -0.694535       -18.8993
 170   2.0000      -0.690800       -18.7976
 171   2.0000      -0.685886       -18.6639
 172   2.0000      -0.684683       -18.6312
 173   2.0000      -0.679089       -18.4789
 174   2.0000      -0.674821       -18.3628
 175   2.0000      -0.671404       -18.2698
 176   2.0000      -0.666977       -18.1494
 177   2.0000      -0.665043       -18.0967
 178   2.0000      -0.662207       -18.0196
 179   2.0000      -0.657341       -17.8872
 180   2.0000      -0.655995       -17.8505
 181   2.0000      -0.650099       -17.6901
 182   2.0000      -0.647622       -17.6227
 183   2.0000      -0.643451       -17.5092
 184   2.0000      -0.642960       -17.4958
 185   2.0000      -0.640067       -17.4171
 186   2.0000      -0.637093       -17.3362
 187   2.0000      -0.633897       -17.2492
 188   2.0000      -0.631929       -17.1957
 189   2.0000      -0.631403       -17.1813
 190   2.0000      -0.629092       -17.1185
 191   2.0000      -0.626102       -17.0371
 192   2.0000      -0.624404       -16.9909
 193   2.0000      -0.624060       -16.9815
 194   2.0000      -0.622358       -16.9352
 195   2.0000      -0.619731       -16.8637
 196   2.0000      -0.616797       -16.7839
 197   2.0000      -0.614875       -16.7316
 198   2.0000      -0.613909       -16.7053
 199   2.0000      -0.608546       -16.5594
 200   2.0000      -0.607480       -16.5304
 201   2.0000      -0.606274       -16.4975
 202   2.0000      -0.604571       -16.4512
 203   2.0000      -0.600563       -16.3421
 204   2.0000      -0.599650       -16.3173
 205   2.0000      -0.596876       -16.2418
 206   2.0000      -0.596645       -16.2355
 207   2.0000      -0.591440       -16.0939
 208   2.0000      -0.590119       -16.0580
 209   2.0000      -0.589653       -16.0453
 210   2.0000      -0.587793       -15.9947
 211   2.0000      -0.585190       -15.9238
 212   2.0000      -0.583633       -15.8815
 213   2.0000      -0.582563       -15.8523
 214   2.0000      -0.580127       -15.7861
 215   2.0000      -0.577773       -15.7220
 216   2.0000      -0.577265       -15.7082
 217   2.0000      -0.576879       -15.6977
 218   2.0000      -0.574424       -15.6309
 219   2.0000      -0.573405       -15.6031
 220   2.0000      -0.572981       -15.5916
 221   2.0000      -0.571710       -15.5570
 222   2.0000      -0.570308       -15.5189
 223   2.0000      -0.568771       -15.4770
 224   2.0000      -0.568392       -15.4667
 225   2.0000      -0.567588       -15.4448
 226   2.0000      -0.566284       -15.4094
 227   2.0000      -0.565014       -15.3748
 228   2.0000      -0.563975       -15.3465
 229   2.0000      -0.563058       -15.3216
 230   2.0000      -0.562500       -15.3064
 231   2.0000      -0.561313       -15.2741
 232   2.0000      -0.559539       -15.2258
 233   2.0000      -0.559345       -15.2206
 234   2.0000      -0.558281       -15.1916
 235   2.0000      -0.555473       -15.1152
 236   2.0000      -0.554578       -15.0908
 237   2.0000      -0.552796       -15.0423
 238   2.0000      -0.551610       -15.0101
 239   2.0000      -0.548845       -14.9348
 240   2.0000      -0.544207       -14.8086
 241   2.0000      -0.542555       -14.7637
 242   2.0000      -0.540162       -14.6986
 243   2.0000      -0.536376       -14.5955
 244   2.0000      -0.529374       -14.4050
 245   2.0000      -0.527357       -14.3501
 246   2.0000      -0.519944       -14.1484
 247   2.0000      -0.514414       -13.9979
 248   2.0000      -0.513863       -13.9829
 249   2.0000      -0.512727       -13.9520
 250   2.0000      -0.509126       -13.8540
 251   2.0000      -0.507357       -13.8059
 252   2.0000      -0.506676       -13.7873
 253   2.0000      -0.505394       -13.7525
 254   2.0000      -0.503880       -13.7113
 255   2.0000      -0.502092       -13.6626
 256   2.0000      -0.500696       -13.6246
 257   2.0000      -0.499159       -13.5828
 258   2.0000      -0.498636       -13.5686
 259   2.0000      -0.497842       -13.5470
 260   2.0000      -0.496538       -13.5115
 261   2.0000      -0.493909       -13.4399
 262   2.0000      -0.491991       -13.3877
 263   2.0000      -0.490191       -13.3388
 264   2.0000      -0.489056       -13.3079
 265   2.0000      -0.481923       -13.1138
 266   2.0000      -0.481431       -13.1004
 267   2.0000      -0.480051       -13.0628
 268   2.0000      -0.476856       -12.9759
 269   2.0000      -0.476111       -12.9556
 270   2.0000      -0.474206       -12.9038
 271   2.0000      -0.473652       -12.8887
 272   2.0000      -0.471800       -12.8383
 273   2.0000      -0.470643       -12.8068
 274   2.0000      -0.469660       -12.7801
 275   2.0000      -0.465794       -12.6749
 276   2.0000      -0.464600       -12.6424
 277   2.0000      -0.463606       -12.6154
 278   2.0000      -0.462858       -12.5950
 279   2.0000      -0.462406       -12.5827
 280   2.0000      -0.460099       -12.5199
 281   2.0000      -0.451004       -12.2724
 282   2.0000      -0.450157       -12.2494
 283   2.0000      -0.445464       -12.1217
 284   2.0000      -0.444162       -12.0863
 285   2.0000      -0.443750       -12.0751
 286   2.0000      -0.441525       -12.0145
 287   2.0000      -0.439784       -11.9671
 288   2.0000      -0.429521       -11.6879
 289   2.0000      -0.428046       -11.6477
 290   2.0000      -0.426608       -11.6086
 291   2.0000      -0.423409       -11.5215
 292   2.0000      -0.421260       -11.4631
 293   2.0000      -0.417428       -11.3588
 294   2.0000      -0.404110       -10.9964
 295   2.0000      -0.403185       -10.9712
 296   2.0000      -0.397652       -10.8207
 297   2.0000      -0.396153       -10.7799
 298   2.0000      -0.381474       -10.3804
 299   2.0000      -0.374528       -10.1914
 300   0.0000       0.052346         1.4244
 301   0.0000       0.053954         1.4682
 302   0.0000       0.059549         1.6204
 303   0.0000       0.062537         1.7017
 304   0.0000       0.064560         1.7568

MULLIKEN ATOMIC CHARGES
-----------------------
   0 O :   -0.540566
   1 O :   -0.449257
   2 O :   -0.524219
   3 O :   -0.576534
   4 O :   -0.687130
   5 O :   -0.493769
   6 O :   -0.577826
   7 O :   -0.721684
   8 O :   -0.593227
   9 O :   -0.578234
  10 O :   -0.506336
  11 O :   -0.530485
  12 O :   -0.584341
  13 O :   -0.634379
  14 O :   -0.533271
  15 O :   -0.556572
  16 O :   -0.673318
  17 O :   -0.522183
  18 N :   -0.350240
  19 N :   -0.383329
  20 N :   -0.288768
  21 N :   -0.257815
  22 N :   -0.318802
  23 N :   -0.371073
  24 C :   -0.412219
  25 C :    0.286455
  26 C :    0.291256
  27 C :    0.357838
  28 C :    0.464186
  29 C :    0.619752
  30 C :   -0.361069
  31 C :   -0.378518
  32 C :    0.006900
  33 C :    0.284497
  34 C :   -0.425804
  35 C :    0.324161
  36 C :    0.495768
  37 C :   -0.076754
  38 C :    0.278612
  39 C :    0.466742
  40 C :   -0.343655
  41 C :    0.462966
  42 C :   -0.346250
  43 C :    0.252926
  44 C :   -0.104843
  45 C :   -0.064155
  46 C :   -0.355615
  47 C :   -0.460306
  48 C :   -0.362448
  49 C :   -0.363967
  50 C :   -0.315416
  51 C :   -0.090895
  52 C :   -0.320356
  53 C :   -0.116873
  54 C :   -0.416247
  55 C :    0.304093
  56 C :    0.265954
  57 C :    0.358713
  58 C :    0.470635
  59 C :    0.419260
  60 C :   -0.303175
  61 C :    0.240122
  62 C :   -0.339265
  63 C :    0.578706
  64 C :    0.396157
  65 C :   -0.048055
  66 C :    0.137985
  67 C :    0.591326
  68 C :    0.412211
  69 C :   -0.087628
  70 C :   -0.391476
  71 C :   -0.385547
  72 C :    0.166725
  73 C :   -0.410397
  74 C :   -0.023172
  75 C :   -0.386506
  76 C :   -0.393439
  77 C :   -0.393432
  78 H :    0.235630
  79 H :    0.150594
  80 H :    0.228225
  81 H :    0.156101
  82 H :    0.097266
  83 H :    0.126582
  84 H :    0.112106
  85 H :    0.118668
  86 H :    0.121015
  87 H :    0.114797
  88 H :    0.115476
  89 H :    0.148204
  90 H :    0.096189
  91 H :    0.145961
  92 H :    0.132585
  93 H :    0.040018
  94 H :    0.117282
  95 H :    0.131588
  96 H :    0.114800
  97 H :    0.033204
  98 H :    0.104620
  99 H :    0.115230
 100 H :    0.129134
 101 H :    0.280464
 102 H :    0.110446
 103 H :    0.144231
 104 H :    0.257442
 105 H :    0.173777
 106 H :    0.130141
 107 H :    0.170064
 108 H :    0.166970
 109 H :    0.112211
 110 H :    0.092150
 111 H :    0.128626
 112 H :    0.122014
 113 H :    0.146389
 114 H :    0.071528
 115 H :    0.105823
 116 H :    0.134240
 117 H :    0.140633
 118 H :    0.140688
 119 H :    0.133022
 120 H :    0.123531
 121 H :    0.144547
 122 H :    0.119679
 123 H :    0.131022
 124 H :    0.103411
 125 H :    0.099358
 126 H :    0.186178
 127 H :   -0.015347
 128 H :    0.172599
 129 H :    0.107591
 130 H :    0.144598
 131 H :    0.109768
 132 H :    0.112944
 133 H :    0.141917
 134 H :    0.128480
 135 H :    0.114620
 136 H :    0.098089
 137 H :    0.142619
 138 H :    0.040891
 139 H :    0.263200
 140 H :    0.082319
 141 H :    0.104418
 142 H :    0.117812
 143 H :    0.170635
 144 H :    0.129229
 145 H :    0.208428
 146 H :    0.107906
 147 H :    0.113016
 148 H :    0.132307
 149 H :    0.212829
 150 H :    0.180010
 151 H :    0.170200
 152 H :    0.153604
 153 H :    0.120388
 154 H :    0.122530
 155 H :    0.125338
 156 H :    0.109639
 157 H :    0.129529
 158 H :    0.123141
 159 H :    0.139161
 160 H :    0.126468
 161 H :    0.047102
 162 H :    0.118571
 163 H :    0.138382
 164 H :    0.126900
 165 H :    0.120825
 166 H :    0.129791
 167 H :    0.120586
Sum of atomic charges:   -0.0000000

LOEWDIN ATOMIC CHARGES
----------------------
   0 O :    0.287782
   1 O :    0.265158
   2 O :    0.203245
   3 O :    0.137162
   4 O :    0.143356
   5 O :    0.254549
   6 O :    0.283998
   7 O :    0.107945
   8 O :    0.316078
   9 O :    0.352755
  10 O :    0.225225
  11 O :    0.203693
  12 O :    0.164759
  13 O :    0.191281
  14 O :    0.283758
  15 O :    0.359829
  16 O :    0.151092
  17 O :    0.322814
  18 N :    0.483675
  19 N :    0.462639
  20 N :    0.490994
  21 N :    0.483826
  22 N :    0.468602
  23 N :    0.482614
  24 C :    0.474323
  25 C :    0.026239
  26 C :    0.093047
  27 C :   -0.443307
  28 C :   -0.553446
  29 C :   -0.374570
  30 C :    0.429067
  31 C :    0.481978
  32 C :    0.105208
  33 C :    0.016344
  34 C :    0.481474
  35 C :    0.071548
  36 C :   -0.344045
  37 C :    0.178816
  38 C :   -0.002450
  39 C :   -0.492552
  40 C :    0.488490
  41 C :   -0.335914
  42 C :    0.476233
  43 C :    0.063902
  44 C :    0.140924
  45 C :    0.151468
  46 C :    0.455320
  47 C :    0.482444
  48 C :    0.468252
  49 C :    0.440054
  50 C :    0.490269
  51 C :    0.176246
  52 C :    0.459936
  53 C :    0.174164
  54 C :    0.476625
  55 C :    0.058590
  56 C :    0.026393
  57 C :   -0.509549
  58 C :   -0.420903
  59 C :   -0.529606
  60 C :    0.470700
  61 C :    0.062925
  62 C :    0.435167
  63 C :   -0.445103
  64 C :   -0.013035
  65 C :    0.150253
  66 C :    0.061566
  67 C :   -0.585619
  68 C :   -0.294704
  69 C :    0.148438
  70 C :    0.487665
  71 C :    0.478945
  72 C :    0.014236
  73 C :    0.507162
  74 C :    0.145975
  75 C :    0.464176
  76 C :    0.430263
  77 C :    0.502458
  78 H :   -0.197543
  79 H :   -0.154844
  80 H :   -0.130080
  81 H :   -0.161070
  82 H :   -0.148270
  83 H :   -0.145227
  84 H :   -0.145262
  85 H :   -0.132241
  86 H :   -0.159014
  87 H :   -0.153522
  88 H :   -0.130725
  89 H :   -0.159856
  90 H :   -0.130121
  91 H :   -0.141251
  92 H :   -0.153320
  93 H :   -0.126412
  94 H :   -0.154413
  95 H :   -0.131362
  96 H :   -0.141488
  97 H :   -0.131624
  98 H :   -0.138348
  99 H :   -0.143455
 100 H :   -0.145297
 101 H :   -0.245029
 102 H :   -0.146995
 103 H :   -0.162170
 104 H :   -0.292615
 105 H :   -0.151092
 106 H :   -0.139995
 107 H :   -0.141614
 108 H :   -0.139926
 109 H :   -0.153117
 110 H :   -0.148030
 111 H :   -0.156013
 112 H :   -0.149130
 113 H :   -0.143925
 114 H :   -0.131701
 115 H :   -0.141803
 116 H :   -0.137480
 117 H :   -0.148953
 118 H :   -0.137844
 119 H :   -0.145952
 120 H :   -0.145593
 121 H :   -0.137888
 122 H :   -0.141749
 123 H :   -0.133531
 124 H :   -0.141417
 125 H :   -0.145362
 126 H :   -0.149785
 127 H :   -0.210946
 128 H :   -0.148678
 129 H :   -0.145634
 130 H :   -0.147923
 131 H :   -0.162022
 132 H :   -0.144297
 133 H :   -0.158492
 134 H :   -0.138537
 135 H :   -0.137970
 136 H :   -0.133546
 137 H :   -0.139642
 138 H :   -0.131727
 139 H :   -0.134187
 140 H :   -0.133716
 141 H :   -0.137671
 142 H :   -0.136267
 143 H :   -0.137861
 144 H :   -0.144614
 145 H :   -0.244277
 146 H :   -0.159618
 147 H :   -0.143197
 148 H :   -0.155260
 149 H :   -0.253769
 150 H :   -0.142981
 151 H :   -0.156653
 152 H :   -0.140940
 153 H :   -0.150024
 154 H :   -0.150312
 155 H :   -0.152984
 156 H :   -0.139322
 157 H :   -0.145304
 158 H :   -0.142781
 159 H :   -0.147674
 160 H :   -0.147184
 161 H :   -0.121907
 162 H :   -0.139777
 163 H :   -0.137388
 164 H :   -0.141113
 165 H :   -0.129367
 166 H :   -0.152976
 167 H :   -0.147318

  Mayer bond orders larger than 0.100000
B(  0-O , 27-C ) :   1.0798 B(  0-O , 55-C ) :   0.8960 B(  1-O , 28-C ) :   1.7848
B(  2-O , 27-C ) :   1.8105 B(  3-O , 36-C ) :   1.6450 B(  4-O , 18-N ) :   0.1009
B(  4-O , 29-C ) :   1.3129 B(  5-O , 39-C ) :   1.8327 B(  6-O , 28-C ) :   1.0043
B(  6-O , 35-C ) :   0.8729 B(  7-O , 41-C ) :   1.3897 B(  8-O , 38-C ) :   0.8844
B(  8-O , 39-C ) :   1.0913 B(  9-O , 25-C ) :   1.0178 B(  9-O , 57-C ) :   1.0723
B( 10-O , 59-C ) :   1.7728 B( 11-O , 57-C ) :   1.7597 B( 12-O , 63-C ) :   1.6572
B( 13-O , 58-C ) :   1.3982 B( 14-O , 67-C ) :   1.6967 B( 15-O , 59-C ) :   1.1207
B( 15-O , 64-C ) :   0.8413 B( 16-O , 68-C ) :   1.4836 B( 17-O , 66-C ) :   0.8764
B( 17-O , 67-C ) :   1.0312 B( 18-N , 26-C ) :   0.8538 B( 18-N , 29-C ) :   1.1948
B( 18-N ,127-H ) :   1.0935 B( 19-N , 33-C ) :   0.8359 B( 19-N , 36-C ) :   1.2083
B( 19-N ,104-H ) :   0.8949 B( 20-N , 41-C ) :   1.2569 B( 20-N , 43-C ) :   0.8964
B( 20-N ,101-H ) :   0.9031 B( 21-N , 56-C ) :   0.8737 B( 21-N , 58-C ) :   1.1876
B( 21-N , 78-H ) :   0.9327 B( 22-N , 61-C ) :   0.8542 B( 22-N , 63-C ) :   1.1908
B( 22-N ,149-H ) :   0.9593 B( 23-N , 68-C ) :   1.2880 B( 23-N , 72-C ) :   0.9072
B( 23-N ,145-H ) :   0.9663 B( 24-C , 51-C ) :   0.8811 B( 24-C , 84-H ) :   0.9790
B( 24-C , 86-H ) :   0.9775 B( 24-C ,125-H ) :   0.9844 B( 25-C , 29-C ) :   0.8456
B( 25-C , 32-C ) :   0.9037 B( 25-C , 80-H ) :   0.8680 B( 26-C , 28-C ) :   0.8760
B( 26-C , 51-C ) :   0.8209 B( 26-C , 93-H ) :   1.0003 B( 27-C , 33-C ) :   0.9862
B( 30-C , 32-C ) :   0.9420 B( 30-C , 85-H ) :   0.9761 B( 30-C , 88-H ) :   0.9757
B( 30-C , 95-H ) :   0.9513 B( 31-C , 37-C ) :   0.9439 B( 31-C , 87-H ) :   0.9728
B( 31-C , 89-H ) :   0.9663 B( 31-C , 94-H ) :   0.9634 B( 32-C , 34-C ) :   0.9111
B( 32-C , 96-H ) :   0.9649 B( 33-C , 37-C ) :   0.8307 B( 33-C , 90-H ) :   0.9339
B( 34-C , 91-H ) :   0.9599 B( 34-C , 99-H ) :   0.9666 B( 34-C ,100-H ) :   0.9762
B( 35-C , 40-C ) :   0.9076 B( 35-C , 41-C ) :   1.0025 B( 35-C , 92-H ) :   0.8789
B( 36-C , 38-C ) :   0.9589 B( 37-C , 42-C ) :   1.0013 B( 37-C ,103-H ) :   0.9450
B( 38-C , 44-C ) :   0.8520 B( 38-C , 97-H ) :   0.9823 B( 39-C , 43-C ) :   0.7942
B( 40-C , 98-H ) :   0.9825 B( 40-C ,106-H ) :   0.9559 B( 40-C ,108-H ) :   0.9504
B( 42-C ,102-H ) :   0.9736 B( 42-C ,109-H ) :   0.9622 B( 42-C ,111-H ) :   0.9728
B( 43-C , 45-C ) :   0.8140 B( 43-C ,114-H ) :   0.9888 B( 44-C , 46-C ) :   0.9607
B( 44-C , 49-C ) :   0.9662 B( 44-C ,107-H ) :   0.9437 B( 45-C , 47-C ) :   0.9324
B( 45-C , 48-C ) :   0.9154 B( 45-C ,105-H ) :   0.9656 B( 46-C ,110-H ) :   0.9782
B( 46-C ,116-H ) :   0.9543 B( 46-C ,118-H ) :   0.9650 B( 47-C ,112-H ) :   0.9821
B( 47-C ,117-H ) :   0.9474 B( 47-C ,119-H ) :   0.9707 B( 48-C ,113-H ) :   0.9681
B( 48-C ,120-H ) :   0.9567 B( 48-C ,122-H ) :   0.9645 B( 49-C ,115-H ) :   0.9756
B( 49-C ,121-H ) :   0.9621 B( 49-C ,123-H ) :   0.9545 B( 50-C , 53-C ) :   1.0138
B( 50-C , 79-H ) :   0.9380 B( 50-C , 82-H ) :   0.9776 B( 50-C ,130-H ) :   0.9502
B( 51-C , 52-C ) :   1.0088 B( 51-C ,131-H ) :   0.9750 B( 52-C , 83-H ) :   0.9501
B( 52-C ,126-H ) :   0.9306 B( 52-C ,129-H ) :   0.9684 B( 53-C , 54-C ) :   0.8847
B( 53-C , 56-C ) :   0.8343 B( 53-C , 81-H ) :   0.9600 B( 54-C ,124-H ) :   0.9815
B( 54-C ,132-H ) :   0.9751 B( 54-C ,133-H ) :   0.9739 B( 55-C , 58-C ) :   1.0110
B( 55-C , 60-C ) :   0.8142 B( 55-C ,128-H ) :   0.8808 B( 56-C , 59-C ) :   0.7903
B( 56-C ,138-H ) :   0.9956 B( 57-C , 61-C ) :   1.0100 B( 60-C ,134-H ) :   0.9756
B( 60-C ,140-H ) :   0.9950 B( 60-C ,141-H ) :   0.9725 B( 61-C , 65-C ) :   0.8329
B( 61-C ,136-H ) :   0.9089 B( 62-C , 65-C ) :   0.9247 B( 62-C ,135-H ) :   0.9687
B( 62-C ,137-H ) :   0.9651 B( 62-C ,142-H ) :   0.9582 B( 63-C , 66-C ) :   0.9505
B( 64-C , 68-C ) :   0.8786 B( 64-C , 69-C ) :   0.9150 B( 64-C ,139-H ) :   0.8364
B( 65-C , 71-C ) :   0.9899 B( 65-C ,148-H ) :   0.9573 B( 66-C , 73-C ) :   0.9840
B( 66-C ,143-H ) :   0.9281 B( 67-C , 72-C ) :   0.8390 B( 69-C , 70-C ) :   1.0063
B( 69-C , 75-C ) :   0.9115 B( 69-C ,146-H ) :   0.9458 B( 70-C ,144-H ) :   0.9568
B( 70-C ,151-H ) :   0.9717 B( 70-C ,154-H ) :   0.9640 B( 71-C ,147-H ) :   0.9792
B( 71-C ,153-H ) :   0.9592 B( 71-C ,155-H ) :   0.9759 B( 72-C , 74-C ) :   0.8461
B( 72-C ,161-H ) :   0.9898 B( 73-C ,152-H ) :   0.9635 B( 73-C ,157-H ) :   0.9661
B( 73-C ,160-H ) :   0.9663 B( 74-C , 76-C ) :   0.9022 B( 74-C , 77-C ) :   0.9399
B( 74-C ,150-H ) :   0.9427 B( 75-C ,158-H ) :   0.9694 B( 75-C ,162-H ) :   0.9643
B( 75-C ,164-H ) :   0.9750 B( 76-C ,156-H ) :   0.9792 B( 76-C ,163-H ) :   0.9584
B( 76-C ,165-H ) :   0.9731 B( 77-C ,159-H ) :   0.9750 B( 77-C ,166-H ) :   0.9567
B( 77-C ,167-H ) :   0.9687

FINAL SINGLE POINT ENERGY     -3772.833573515261

DIPOLE MOMENT
-------------
                                X             Y             Z
Electronic contribution:     -4.94715      14.38394      -4.50611
Nuclear contribution   :      4.74110     -14.78988       4.90468
                        -----------------------------------------
Total Dipole Moment    :     -0.20605      -0.40594       0.39858
                        -----------------------------------------
Magnitude (a.u.)       :      0.60507
Magnitude (Debye)      :      1.53796

Rotational constants in cm-1:     0.001327     0.000669     0.000660
Rotational constants in MHz :    39.769063    20.052824    19.784539

                             ****ORCA TERMINATED NORMALLY****
TOTAL RUN TIME: 0 days 16 hours 23 minutes 15 seconds 85 msec
