                         Program Version 5.0.2 -  RELEASE  -
|  1> !rhf pc-0 nori defgrid3 verytightscf
|  2> %pal nprocs 128 end
|  3> %maxcore 5000
|  4>
|  5> %scf
|  6>   maxiter 120
|  7> end
|  8>
|  9> *xyzfile 0 1 valinomycine.xyz
| 10>
| 11>                          ****END OF INPUT****

CARTESIAN COORDINATES (ANGSTROEM)
---------------------------------
  O      0.186321    1.146588   -4.103502
  O      0.368321    2.264087   -0.090002
  O      1.043021    3.226387   -3.789802
  O      1.940321   -0.974512   -6.133202
  O      2.312021    0.411988    1.916798
  O      2.331221   -1.005513   -2.178402
  O      2.427421    3.122887    0.381298
  O      4.082321    2.046788   -2.639602
  O      4.246421   -1.088313   -3.365902
  O     -0.290279   -0.560612    4.091098
  O     -0.665779   -1.812612    0.071898
  O     -1.276979   -2.495512    3.669998
  O     -1.992679    1.757087    5.759898
  O     -2.558979    0.101587   -2.220002
  O     -2.574979    1.612288    2.034198
  O     -2.733579   -2.536912   -0.471002
  O     -4.208979   -1.315913    2.528398
  O     -4.409879    1.788188    3.129998
  N      0.463221    1.477788    2.683098
  N      2.914021    0.743088   -4.879902
  N      3.680621    1.012088   -0.668702
  N     -0.686279   -0.943412   -2.702702
  N     -3.055079    0.049888    4.717098
  N     -3.932579   -0.333012    0.477198
  C      0.457821    5.223388    1.794998
  C      0.824921   -0.881413    3.241698
  C      1.038321    2.760788    2.181798
  C      1.070421    2.150287   -4.364202
  C      1.199421    2.626288    0.663398
  C      1.221021    0.411988    2.539898
  C      1.738021   -2.702412    4.717098
  C      1.951221    4.105887   -6.527102
  C      2.004421   -1.440112    4.029498
  C      2.054821    1.736387   -5.467202
  C      2.524421   -0.457112    5.118098
  C      2.713721    3.257388   -1.084102
  C      2.740621   -0.633012   -5.238002
  C      2.902721    2.957387   -5.911202
  C      3.466421   -1.647012   -4.450202
  C      3.502121   -0.808912   -2.273002
  C      3.506621    4.561187   -1.270302
  C      3.517321    2.046788   -1.485102
  C      3.912821    2.450387   -7.042802
  C      4.375921   -0.198513   -1.141402
  C      4.505221   -2.381712   -5.381202
  C      4.564321   -1.150413    0.047498
  C      5.141221   -3.581913   -4.665002
  C      5.269521   -2.464513   -0.511102
  C      5.475521   -0.539913    1.121798
  C      5.722621   -1.574612   -5.710702
  C     -0.032779   -3.509512   -4.135102
  C     -0.055979    3.909287    2.453898
  C     -0.082979    4.157587    4.000898
  C     -0.236079   -3.343913   -2.545102
  C     -0.816579   -4.647712   -1.943502
  C     -0.889279    1.498387   -3.159602
  C     -1.210379   -2.174713   -2.230002
  C     -1.239779   -1.440112    4.272998
  C     -1.422779    0.132587   -2.631102
  C     -1.507879   -2.154012   -0.726002
  C     -1.967079    2.284788   -3.891502
  C     -2.256279   -0.974512    5.318698
  C     -2.389379   -3.271513    6.478898
  C     -2.846379    1.343187    4.989198
  C     -3.051479   -2.661012    0.906898
  C     -3.164879   -2.185112    5.848698
  C     -3.634779    2.388288    4.215698
  C     -3.730679    1.446687    2.052798
  C     -3.760479   -1.409112    1.350998
  C     -3.972979   -3.892313    0.964198
  C     -4.041379   -4.440713    2.453898
  C     -4.143079   -1.491812    6.887098
  C     -4.584679    0.846588    0.995698
  C     -4.741179    2.998787    5.218398
  C     -4.823679    1.819187   -0.167302
  C     -5.343279   -3.664712    0.319698
  C     -5.544079    3.029787    0.247998
  C     -5.848679    1.115587   -1.198702
  H      0.170121   -0.929813   -3.218802
  H      0.261321   -2.637612   -4.526602
  H      0.549421   -1.551912    2.552898
  H      0.653021   -3.154113   -2.128602
  H      0.663121   -4.205513   -4.311902
  H      0.814421    4.478887    4.303198
  H      0.862921    5.811587    2.494998
  H      1.038121   -2.560112    5.416998
  H      1.147621    5.003387    1.105198
  H      1.306521    3.695088   -7.171802
  H      1.415421   -3.380612    4.056798
  H      1.445121    4.551588   -5.788702
  H      1.554821    1.368688   -6.251202
  H      1.753821    0.046587    5.508598
  H      1.861421    3.298287   -1.605402
  H      1.904721    2.987687    2.626598
  H      2.511521    4.783787   -7.003102
  H      2.578121   -3.031312    5.148498
  H      2.753821   -1.587312    3.383998
  H      2.822421   -2.325812   -4.097302
  H      2.885721    5.291687   -1.554602
  H      2.985421   -0.972612    5.840498
  H      3.168621    0.187087    4.705898
  H      3.331521    1.054388    0.267398
  H      3.397921    2.000787   -7.772802
  H      3.417421    3.326087   -5.137202
  H      3.521521    0.990687   -4.125202
  H      3.677421   -1.390312    0.442198
  H      3.943121    4.812688   -0.406502
  H      4.047821   -2.684712   -6.217302
  H      4.207421    4.428387   -1.971102
  H      4.411421    3.231087   -7.419302
  H      4.430221   -4.106113   -4.196302
  H      4.561521    1.801687   -6.644902
  H      4.583421   -3.058812   -0.930702
  H      4.918621   -0.053012    1.794598
  H      5.271121    0.043388   -1.515602
  H      5.490921   -0.886713   -6.398602
  H      5.598621   -4.166512   -5.335202
  H      5.714921   -2.949812    0.241198
  H      5.809721   -3.255912   -3.996602
  H      5.953521   -2.211112   -1.195202
  H      5.987921   -1.267613    1.577798
  H      6.055421   -1.120212   -4.884402
  H      6.114621    0.099087    0.693698
  H      6.435521   -2.177112   -6.069402
  H     -0.081479   -5.174912   -1.517402
  H     -0.306579    5.700187    1.361098
  H     -0.307279    3.304488    4.471998
  H     -0.527079    1.377787    2.779898
  H     -0.530079    2.036087   -2.396802
  H     -0.773579    4.848187    4.216098
  H     -0.896579   -3.788312   -4.554802
  H     -0.954279    3.642687    2.104798
  H     -1.238579   -5.191212   -2.669102
  H     -1.505079   -4.419912   -1.255002
  H     -1.538379    2.923688   -4.530402
  H     -1.737979   -2.882312    7.130298
  H     -1.758979   -0.602213    6.102298
  H     -1.892879   -3.779113    5.774798
  H     -2.069279   -2.367012   -2.704702
  H     -2.235679   -2.817613    1.463698
  H     -2.516279    2.794487   -3.229302
  H     -2.555779    1.653687   -4.396602
  H     -3.011079   -3.890213    6.959298
  H     -3.036179    3.118887    3.887198
  H     -3.156179   -4.831313    2.706798
  H     -3.387679   -0.276112   -0.359402
  H     -3.522779   -4.607513    0.429598
  H     -3.608479   -0.972412    7.553798
  H     -3.703079   -2.540012    5.084198
  H     -3.783179   -0.206113    4.081198
  H     -3.966479    2.035887   -0.634502
  H     -4.263879   -3.690112    3.076098
  H     -4.301779    3.633887    5.853598
  H     -4.676979   -2.191912    7.361398
  H     -4.746979   -5.146412    2.517798
  H     -4.761379   -0.873612    6.401898
  H     -4.897679    3.685587    0.638098
  H     -5.170579    2.256787    5.733398
  H     -5.267479   -2.959612   -0.385402
  H     -5.333179    0.589187   -1.874802
  H     -5.438079    3.484488    4.690798
  H     -5.469679    0.598187    1.389698
  H     -5.662979   -4.516813   -0.094702
  H     -5.995079    3.438587   -0.545302
  H     -5.995479   -3.368812    1.017598
  H     -6.230679    2.790587    0.934598
  H     -6.388179    1.817287   -1.664002
  H     -6.460179    0.504088   -0.696602

 Total Charge           Charge          ....    0
 Multiplicity           Mult            ....    1
 Number of Electrons    NEL             ....  600
 Basis Dimension        Dim             ....  882

ORBITAL ENERGIES
----------------

  NO   OCC          E(Eh)            E(eV)
   0   2.0000     -20.680201      -562.7369
   1   2.0000     -20.677438      -562.6617
   2   2.0000     -20.667490      -562.3910
   3   2.0000     -20.664150      -562.3001
   4   2.0000     -20.662860      -562.2650
   5   2.0000     -20.658250      -562.1396
   6   2.0000     -20.628202      -561.3219
   7   2.0000     -20.618913      -561.0692
   8   2.0000     -20.618530      -561.0587
   9   2.0000     -20.615410      -560.9738
  10   2.0000     -20.609171      -560.8041
  11   2.0000     -20.605170      -560.6952
  12   2.0000     -20.591191      -560.3148
  13   2.0000     -20.583815      -560.1141
  14   2.0000     -20.576446      -559.9136
  15   2.0000     -20.576367      -559.9114
  16   2.0000     -20.571845      -559.7884
  17   2.0000     -20.571654      -559.7832
  18   2.0000     -15.632748      -425.3887
  19   2.0000     -15.628831      -425.2821
  20   2.0000     -15.625514      -425.1918
  21   2.0000     -15.622986      -425.1231
  22   2.0000     -15.622105      -425.0991
  23   2.0000     -15.612767      -424.8450
  24   2.0000     -11.456511      -311.7475
  25   2.0000     -11.447114      -311.4918
  26   2.0000     -11.447073      -311.4907
  27   2.0000     -11.444414      -311.4183
  28   2.0000     -11.442928      -311.3779
  29   2.0000     -11.442647      -311.3703
  30   2.0000     -11.428236      -310.9781
  31   2.0000     -11.418045      -310.7008
  32   2.0000     -11.417723      -310.6920
  33   2.0000     -11.412689      -310.5551
  34   2.0000     -11.409609      -310.4713
  35   2.0000     -11.408896      -310.4518
  36   2.0000     -11.351976      -308.9030
  37   2.0000     -11.346474      -308.7533
  38   2.0000     -11.343685      -308.6774
  39   2.0000     -11.339580      -308.5657
  40   2.0000     -11.336039      -308.4693
  41   2.0000     -11.332631      -308.3766
  42   2.0000     -11.322083      -308.0895
  43   2.0000     -11.314468      -307.8823
  44   2.0000     -11.313947      -307.8682
  45   2.0000     -11.311549      -307.8029
  46   2.0000     -11.307529      -307.6935
  47   2.0000     -11.305695      -307.6436
  48   2.0000     -11.265125      -306.5396
  49   2.0000     -11.265049      -306.5376
  50   2.0000     -11.264206      -306.5146
  51   2.0000     -11.263114      -306.4849
  52   2.0000     -11.262525      -306.4689
  53   2.0000     -11.261315      -306.4360
  54   2.0000     -11.252953      -306.2084
  55   2.0000     -11.251807      -306.1772
  56   2.0000     -11.248376      -306.0839
  57   2.0000     -11.242972      -305.9368
  58   2.0000     -11.227213      -305.5080
  59   2.0000     -11.222916      -305.3911
  60   2.0000     -11.221168      -305.3435
  61   2.0000     -11.218589      -305.2733
  62   2.0000     -11.216824      -305.2253
  63   2.0000     -11.216389      -305.2135
  64   2.0000     -11.213562      -305.1365
  65   2.0000     -11.212744      -305.1143
  66   2.0000     -11.210888      -305.0638
  67   2.0000     -11.209356      -305.0221
  68   2.0000     -11.208286      -304.9930
  69   2.0000     -11.208220      -304.9912
  70   2.0000     -11.205621      -304.9204
  71   2.0000     -11.204680      -304.8949
  72   2.0000     -11.204519      -304.8905
  73   2.0000     -11.204243      -304.8829
  74   2.0000     -11.203539      -304.8638
  75   2.0000     -11.202546      -304.8368
  76   2.0000     -11.202512      -304.8359
  77   2.0000     -11.201150      -304.7988
  78   2.0000      -1.531043       -41.6618
  79   2.0000      -1.520558       -41.3765
  80   2.0000      -1.513426       -41.1824
  81   2.0000      -1.507222       -41.0136
  82   2.0000      -1.494717       -40.6733
  83   2.0000      -1.481693       -40.3189
  84   2.0000      -1.430548       -38.9272
  85   2.0000      -1.415908       -38.5288
  86   2.0000      -1.415545       -38.5189
  87   2.0000      -1.405963       -38.2582
  88   2.0000      -1.405657       -38.2499
  89   2.0000      -1.403142       -38.1814
  90   2.0000      -1.400483       -38.1091
  91   2.0000      -1.395962       -37.9861
  92   2.0000      -1.390713       -37.8432
  93   2.0000      -1.384400       -37.6714
  94   2.0000      -1.381799       -37.6007
  95   2.0000      -1.380891       -37.5760
  96   2.0000      -1.271756       -34.6063
  97   2.0000      -1.264838       -34.4180
  98   2.0000      -1.256847       -34.2006
  99   2.0000      -1.254812       -34.1452
 100   2.0000      -1.253164       -34.1003
 101   2.0000      -1.237543       -33.6753
 102   2.0000      -1.138025       -30.9672
 103   2.0000      -1.134887       -30.8818
 104   2.0000      -1.133991       -30.8575
 105   2.0000      -1.121431       -30.5157
 106   2.0000      -1.118400       -30.4332
 107   2.0000      -1.108762       -30.1709
 108   2.0000      -1.108014       -30.1506
 109   2.0000      -1.107731       -30.1429
 110   2.0000      -1.086500       -29.5652
 111   2.0000      -1.084816       -29.5193
 112   2.0000      -1.083716       -29.4894
 113   2.0000      -1.074935       -29.2505
 114   2.0000      -1.039157       -28.2769
 115   2.0000      -1.038011       -28.2457
 116   2.0000      -1.033428       -28.1210
 117   2.0000      -1.008719       -27.4486
 118   2.0000      -0.999602       -27.2005
 119   2.0000      -0.998818       -27.1792
 120   2.0000      -0.985002       -26.8033
 121   2.0000      -0.978997       -26.6399
 122   2.0000      -0.976258       -26.5653
 123   2.0000      -0.973435       -26.4885
 124   2.0000      -0.972545       -26.4643
 125   2.0000      -0.967698       -26.3324
 126   2.0000      -0.967593       -26.3295
 127   2.0000      -0.967253       -26.3203
 128   2.0000      -0.965468       -26.2717
 129   2.0000      -0.964945       -26.2575
 130   2.0000      -0.963959       -26.2307
 131   2.0000      -0.953503       -25.9461
 132   2.0000      -0.932833       -25.3837
 133   2.0000      -0.926762       -25.2185
 134   2.0000      -0.921094       -25.0642
 135   2.0000      -0.865844       -23.5608
 136   2.0000      -0.863213       -23.4892
 137   2.0000      -0.858639       -23.3648
 138   2.0000      -0.854543       -23.2533
 139   2.0000      -0.851893       -23.1812
 140   2.0000      -0.846694       -23.0397
 141   2.0000      -0.840863       -22.8810
 142   2.0000      -0.833358       -22.6768
 143   2.0000      -0.829884       -22.5823
 144   2.0000      -0.820351       -22.3229
 145   2.0000      -0.816819       -22.2268
 146   2.0000      -0.814858       -22.1734
 147   2.0000      -0.811885       -22.0925
 148   2.0000      -0.804461       -21.8905
 149   2.0000      -0.802681       -21.8421
 150   2.0000      -0.798725       -21.7344
 151   2.0000      -0.796589       -21.6763
 152   2.0000      -0.792333       -21.5605
 153   2.0000      -0.789988       -21.4967
 154   2.0000      -0.787361       -21.4252
 155   2.0000      -0.783486       -21.3197
 156   2.0000      -0.766489       -20.8572
 157   2.0000      -0.764873       -20.8132
 158   2.0000      -0.763691       -20.7811
 159   2.0000      -0.758036       -20.6272
 160   2.0000      -0.757391       -20.6096
 161   2.0000      -0.751928       -20.4610
 162   2.0000      -0.746175       -20.3045
 163   2.0000      -0.736058       -20.0292
 164   2.0000      -0.732571       -19.9343
 165   2.0000      -0.730948       -19.8901
 166   2.0000      -0.719224       -19.5711
 167   2.0000      -0.711248       -19.3540
 168   2.0000      -0.706593       -19.2274
 169   2.0000      -0.703389       -19.1402
 170   2.0000      -0.699738       -19.0408
 171   2.0000      -0.697097       -18.9690
 172   2.0000      -0.694049       -18.8860
 173   2.0000      -0.689353       -18.7582
 174   2.0000      -0.686615       -18.6837
 175   2.0000      -0.680661       -18.5217
 176   2.0000      -0.678031       -18.4501
 177   2.0000      -0.676119       -18.3981
 178   2.0000      -0.674938       -18.3660
 179   2.0000      -0.669354       -18.2140
 180   2.0000      -0.667550       -18.1650
 181   2.0000      -0.661213       -17.9925
 182   2.0000      -0.656785       -17.8720
 183   2.0000      -0.656295       -17.8587
 184   2.0000      -0.654750       -17.8167
 185   2.0000      -0.652359       -17.7516
 186   2.0000      -0.648389       -17.6436
 187   2.0000      -0.644976       -17.5507
 188   2.0000      -0.643643       -17.5144
 189   2.0000      -0.641717       -17.4620
 190   2.0000      -0.639710       -17.4074
 191   2.0000      -0.636148       -17.3105
 192   2.0000      -0.632011       -17.1979
 193   2.0000      -0.631736       -17.1904
 194   2.0000      -0.630657       -17.1610
 195   2.0000      -0.627566       -17.0769
 196   2.0000      -0.623809       -16.9747
 197   2.0000      -0.622680       -16.9440
 198   2.0000      -0.621144       -16.9022
 199   2.0000      -0.616452       -16.7745
 200   2.0000      -0.615316       -16.7436
 201   2.0000      -0.614518       -16.7219
 202   2.0000      -0.613500       -16.6942
 203   2.0000      -0.611089       -16.6286
 204   2.0000      -0.609601       -16.5881
 205   2.0000      -0.606939       -16.5156
 206   2.0000      -0.603591       -16.4245
 207   2.0000      -0.598852       -16.2956
 208   2.0000      -0.597349       -16.2547
 209   2.0000      -0.596365       -16.2279
 210   2.0000      -0.595526       -16.2051
 211   2.0000      -0.593773       -16.1574
 212   2.0000      -0.592709       -16.1284
 213   2.0000      -0.592169       -16.1137
 214   2.0000      -0.589080       -16.0297
 215   2.0000      -0.585912       -15.9435
 216   2.0000      -0.584896       -15.9158
 217   2.0000      -0.582315       -15.8456
 218   2.0000      -0.581567       -15.8253
 219   2.0000      -0.581178       -15.8147
 220   2.0000      -0.580556       -15.7977
 221   2.0000      -0.579079       -15.7575
 222   2.0000      -0.576755       -15.6943
 223   2.0000      -0.575574       -15.6622
 224   2.0000      -0.574647       -15.6369
 225   2.0000      -0.574036       -15.6203
 226   2.0000      -0.573471       -15.6049
 227   2.0000      -0.572149       -15.5690
 228   2.0000      -0.571821       -15.5600
 229   2.0000      -0.570836       -15.5332
 230   2.0000      -0.569858       -15.5066
 231   2.0000      -0.568216       -15.4619
 232   2.0000      -0.567436       -15.4407
 233   2.0000      -0.567251       -15.4357
 234   2.0000      -0.565210       -15.3801
 235   2.0000      -0.563763       -15.3408
 236   2.0000      -0.561947       -15.2914
 237   2.0000      -0.561140       -15.2694
 238   2.0000      -0.560759       -15.2590
 239   2.0000      -0.557392       -15.1674
 240   2.0000      -0.552952       -15.0466
 241   2.0000      -0.551662       -15.0115
 242   2.0000      -0.548801       -14.9336
 243   2.0000      -0.544840       -14.8258
 244   2.0000      -0.536930       -14.6106
 245   2.0000      -0.535433       -14.5699
 246   2.0000      -0.531877       -14.4731
 247   2.0000      -0.523234       -14.2379
 248   2.0000      -0.521642       -14.1946
 249   2.0000      -0.520033       -14.1508
 250   2.0000      -0.518278       -14.1031
 251   2.0000      -0.516561       -14.0563
 252   2.0000      -0.512688       -13.9510
 253   2.0000      -0.512244       -13.9389
 254   2.0000      -0.511758       -13.9256
 255   2.0000      -0.509502       -13.8643
 256   2.0000      -0.506695       -13.7879
 257   2.0000      -0.506147       -13.7730
 258   2.0000      -0.505085       -13.7441
 259   2.0000      -0.504953       -13.7405
 260   2.0000      -0.502991       -13.6871
 261   2.0000      -0.501150       -13.6370
 262   2.0000      -0.499117       -13.5817
 263   2.0000      -0.498270       -13.5586
 264   2.0000      -0.496626       -13.5139
 265   2.0000      -0.489524       -13.3206
 266   2.0000      -0.488854       -13.3024
 267   2.0000      -0.488430       -13.2909
 268   2.0000      -0.485283       -13.2052
 269   2.0000      -0.484981       -13.1970
 270   2.0000      -0.483949       -13.1689
 271   2.0000      -0.482147       -13.1199
 272   2.0000      -0.479135       -13.0379
 273   2.0000      -0.478075       -13.0091
 274   2.0000      -0.476726       -12.9724
 275   2.0000      -0.474969       -12.9246
 276   2.0000      -0.473769       -12.8919
 277   2.0000      -0.471922       -12.8417
 278   2.0000      -0.470398       -12.8002
 279   2.0000      -0.469381       -12.7725
 280   2.0000      -0.467871       -12.7314
 281   2.0000      -0.459000       -12.4900
 282   2.0000      -0.457574       -12.4512
 283   2.0000      -0.453320       -12.3355
 284   2.0000      -0.451270       -12.2797
 285   2.0000      -0.451139       -12.2761
 286   2.0000      -0.449036       -12.2189
 287   2.0000      -0.447456       -12.1759
 288   2.0000      -0.435192       -11.8422
 289   2.0000      -0.433687       -11.8012
 290   2.0000      -0.432948       -11.7811
 291   2.0000      -0.429804       -11.6956
 292   2.0000      -0.427893       -11.6436
 293   2.0000      -0.423784       -11.5317
 294   2.0000      -0.408631       -11.1194
 295   2.0000      -0.405771       -11.0416
 296   2.0000      -0.401075       -10.9138
 297   2.0000      -0.399112       -10.8604
 298   2.0000      -0.387323       -10.5396
 299   2.0000      -0.380747       -10.3606
 300   0.0000       0.136758         3.7214
 301   0.0000       0.142045         3.8652
 302   0.0000       0.144785         3.9398
 303   0.0000       0.149707         4.0737
 304   0.0000       0.160893         4.3781

MULLIKEN ATOMIC CHARGES
-----------------------
   0 O :   -0.523492
   1 O :   -0.385897
   2 O :   -0.431443
   3 O :   -0.430326
   4 O :   -0.511789
   5 O :   -0.393290
   6 O :   -0.521153
   7 O :   -0.519391
   8 O :   -0.505910
   9 O :   -0.524278
  10 O :   -0.389970
  11 O :   -0.431987
  12 O :   -0.435810
  13 O :   -0.490979
  14 O :   -0.423953
  15 O :   -0.509774
  16 O :   -0.500051
  17 O :   -0.523263
  18 N :   -0.674579
  19 N :   -0.732482
  20 N :   -0.701049
  21 N :   -0.684635
  22 N :   -0.737028
  23 N :   -0.698000
  24 C :   -0.602367
  25 C :    0.023836
  26 C :   -0.037282
  27 C :    0.532062
  28 C :    0.508489
  29 C :    0.582451
  30 C :   -0.572508
  31 C :   -0.599550
  32 C :   -0.262733
  33 C :   -0.003469
  34 C :   -0.597104
  35 C :   -0.039474
  36 C :    0.485513
  37 C :   -0.236538
  38 C :   -0.028480
  39 C :    0.506536
  40 C :   -0.577858
  41 C :    0.547992
  42 C :   -0.580887
  43 C :    0.002148
  44 C :   -0.228634
  45 C :   -0.246930
  46 C :   -0.584940
  47 C :   -0.598368
  48 C :   -0.591277
  49 C :   -0.592997
  50 C :   -0.590119
  51 C :   -0.254060
  52 C :   -0.593968
  53 C :   -0.255956
  54 C :   -0.604163
  55 C :   -0.014295
  56 C :    0.003461
  57 C :    0.540906
  58 C :    0.579601
  59 C :    0.478814
  60 C :   -0.588352
  61 C :   -0.003235
  62 C :   -0.593410
  63 C :    0.505204
  64 C :   -0.016192
  65 C :   -0.245786
  66 C :   -0.033148
  67 C :    0.533496
  68 C :    0.540395
  69 C :   -0.228515
  70 C :   -0.603040
  71 C :   -0.584600
  72 C :   -0.010283
  73 C :   -0.554083
  74 C :   -0.244739
  75 C :   -0.593464
  76 C :   -0.586679
  77 C :   -0.581653
  78 H :    0.383783
  79 H :    0.223407
  80 H :    0.286023
  81 H :    0.242942
  82 H :    0.200521
  83 H :    0.190358
  84 H :    0.212039
  85 H :    0.196958
  86 H :    0.220490
  87 H :    0.184278
  88 H :    0.209906
  89 H :    0.222743
  90 H :    0.273930
  91 H :    0.218344
  92 H :    0.299008
  93 H :    0.261815
  94 H :    0.203297
  95 H :    0.201614
  96 H :    0.245176
  97 H :    0.282026
  98 H :    0.215184
  99 H :    0.205276
 100 H :    0.206030
 101 H :    0.401176
 102 H :    0.193145
 103 H :    0.238589
 104 H :    0.383156
 105 H :    0.254447
 106 H :    0.223682
 107 H :    0.244173
 108 H :    0.243154
 109 H :    0.199094
 110 H :    0.196437
 111 H :    0.216823
 112 H :    0.201496
 113 H :    0.230277
 114 H :    0.257886
 115 H :    0.211134
 116 H :    0.205210
 117 H :    0.211179
 118 H :    0.215713
 119 H :    0.205499
 120 H :    0.203729
 121 H :    0.222632
 122 H :    0.197169
 123 H :    0.207529
 124 H :    0.203210
 125 H :    0.200011
 126 H :    0.241031
 127 H :    0.382420
 128 H :    0.284005
 129 H :    0.196241
 130 H :    0.196345
 131 H :    0.247356
 132 H :    0.208477
 133 H :    0.227840
 134 H :    0.224965
 135 H :    0.185970
 136 H :    0.266833
 137 H :    0.224544
 138 H :    0.247605
 139 H :    0.305656
 140 H :    0.213688
 141 H :    0.221528
 142 H :    0.204302
 143 H :    0.270675
 144 H :    0.201988
 145 H :    0.385428
 146 H :    0.239610
 147 H :    0.195710
 148 H :    0.259616
 149 H :    0.391665
 150 H :    0.243650
 151 H :    0.244564
 152 H :    0.220155
 153 H :    0.201045
 154 H :    0.196392
 155 H :    0.208535
 156 H :    0.197159
 157 H :    0.221804
 158 H :    0.220964
 159 H :    0.230477
 160 H :    0.222770
 161 H :    0.265408
 162 H :    0.200989
 163 H :    0.214721
 164 H :    0.206009
 165 H :    0.203308
 166 H :    0.200173
 167 H :    0.197442
Sum of atomic charges:   -0.0000000

LOEWDIN ATOMIC CHARGES
----------------------
   0 O :   -0.288026
   1 O :   -0.260998
   2 O :   -0.294728
   3 O :   -0.337115
   4 O :   -0.383688
   5 O :   -0.263677
   6 O :   -0.287365
   7 O :   -0.405420
   8 O :   -0.264073
   9 O :   -0.257756
  10 O :   -0.285339
  11 O :   -0.305433
  12 O :   -0.338606
  13 O :   -0.358812
  14 O :   -0.274618
  15 O :   -0.247289
  16 O :   -0.368664
  17 O :   -0.276168
  18 N :   -0.261552
  19 N :   -0.316620
  20 N :   -0.267867
  21 N :   -0.257157
  22 N :   -0.294393
  23 N :   -0.287626
  24 C :   -0.205746
  25 C :    0.103519
  26 C :    0.037437
  27 C :    0.349061
  28 C :    0.327377
  29 C :    0.344258
  30 C :   -0.187060
  31 C :   -0.206118
  32 C :   -0.059181
  33 C :    0.039944
  34 C :   -0.199812
  35 C :    0.099160
  36 C :    0.318373
  37 C :   -0.032670
  38 C :    0.076424
  39 C :    0.334572
  40 C :   -0.186320
  41 C :    0.334090
  42 C :   -0.193722
  43 C :    0.049690
  44 C :   -0.037526
  45 C :   -0.036725
  46 C :   -0.188186
  47 C :   -0.199678
  48 C :   -0.193520
  49 C :   -0.193508
  50 C :   -0.190926
  51 C :   -0.032649
  52 C :   -0.193377
  53 C :   -0.036977
  54 C :   -0.202383
  55 C :    0.104063
  56 C :    0.033312
  57 C :    0.342210
  58 C :    0.329749
  59 C :    0.323136
  60 C :   -0.197674
  61 C :    0.040075
  62 C :   -0.200124
  63 C :    0.297307
  64 C :    0.085960
  65 C :   -0.035003
  66 C :    0.096561
  67 C :    0.323161
  68 C :    0.351226
  69 C :   -0.033583
  70 C :   -0.197538
  71 C :   -0.195118
  72 C :    0.031661
  73 C :   -0.175868
  74 C :   -0.038714
  75 C :   -0.199772
  76 C :   -0.195262
  77 C :   -0.185867
  78 H :    0.197693
  79 H :    0.067954
  80 H :    0.066754
  81 H :    0.057861
  82 H :    0.067925
  83 H :    0.064419
  84 H :    0.071051
  85 H :    0.060782
  86 H :    0.061873
  87 H :    0.060379
  88 H :    0.069213
  89 H :    0.069990
  90 H :    0.066431
  91 H :    0.074748
  92 H :    0.065992
  93 H :    0.059466
  94 H :    0.068243
  95 H :    0.070616
  96 H :    0.065739
  97 H :    0.058760
  98 H :    0.080696
  99 H :    0.067523
 100 H :    0.068699
 101 H :    0.191753
 102 H :    0.065086
 103 H :    0.058362
 104 H :    0.172305
 105 H :    0.064766
 106 H :    0.080956
 107 H :    0.063556
 108 H :    0.085426
 109 H :    0.065697
 110 H :    0.059145
 111 H :    0.068025
 112 H :    0.065422
 113 H :    0.078689
 114 H :    0.056308
 115 H :    0.065562
 116 H :    0.073162
 117 H :    0.071537
 118 H :    0.070171
 119 H :    0.067525
 120 H :    0.068077
 121 H :    0.074981
 122 H :    0.067443
 123 H :    0.070750
 124 H :    0.075190
 125 H :    0.073330
 126 H :    0.074704
 127 H :    0.198181
 128 H :    0.063962
 129 H :    0.064172
 130 H :    0.068645
 131 H :    0.056183
 132 H :    0.071807
 133 H :    0.060970
 134 H :    0.075883
 135 H :    0.062449
 136 H :    0.062491
 137 H :    0.073998
 138 H :    0.048215
 139 H :    0.066361
 140 H :    0.081697
 141 H :    0.077005
 142 H :    0.072283
 143 H :    0.058460
 144 H :    0.071518
 145 H :    0.187114
 146 H :    0.056742
 147 H :    0.066346
 148 H :    0.060776
 149 H :    0.183567
 150 H :    0.061733
 151 H :    0.073575
 152 H :    0.081267
 153 H :    0.065803
 154 H :    0.065593
 155 H :    0.065718
 156 H :    0.062647
 157 H :    0.076128
 158 H :    0.071823
 159 H :    0.079977
 160 H :    0.079136
 161 H :    0.060582
 162 H :    0.073042
 163 H :    0.074025
 164 H :    0.069785
 165 H :    0.070017
 166 H :    0.063879
 167 H :    0.066988

  Mayer bond orders larger than 0.100000
B(  0-O , 27-C ) :   1.0362 B(  0-O , 55-C ) :   0.8045 B(  1-O , 28-C ) :   2.0288
B(  2-O , 27-C ) :   1.9221 B(  3-O , 19-N ) :   0.1082 B(  3-O , 36-C ) :   1.9368
B(  4-O , 29-C ) :   1.7848 B(  5-O , 39-C ) :   2.0004 B(  6-O , 28-C ) :   0.9993
B(  6-O , 35-C ) :   0.8185 B(  7-O , 41-C ) :   1.7446 B(  7-O ,104-H ) :   0.1142
B(  8-O , 38-C ) :   0.8347 B(  8-O , 39-C ) :   1.0064 B(  9-O , 25-C ) :   0.7909
B(  9-O , 57-C ) :   1.0500 B( 10-O , 59-C ) :   2.0196 B( 11-O , 57-C ) :   1.9342
B( 12-O , 22-N ) :   0.1025 B( 12-O , 63-C ) :   1.9292 B( 13-O , 58-C ) :   1.8404
B( 14-O , 67-C ) :   1.9690 B( 15-O , 59-C ) :   1.0295 B( 15-O , 64-C ) :   0.8065
B( 16-O , 68-C ) :   1.7960 B( 17-O , 66-C ) :   0.8123 B( 17-O , 67-C ) :   1.0254
B( 18-N , 26-C ) :   0.8727 B( 18-N , 29-C ) :   1.1236 B( 18-N ,127-H ) :   0.8129
B( 19-N , 33-C ) :   0.8770 B( 19-N , 36-C ) :   1.0275 B( 19-N ,104-H ) :   0.7846
B( 20-N , 41-C ) :   1.1461 B( 20-N , 43-C ) :   0.8604 B( 20-N ,101-H ) :   0.7858
B( 21-N , 56-C ) :   0.8714 B( 21-N , 58-C ) :   1.1028 B( 21-N , 78-H ) :   0.8156
B( 22-N , 61-C ) :   0.8690 B( 22-N , 63-C ) :   1.0535 B( 22-N ,149-H ) :   0.7843
B( 23-N , 68-C ) :   1.0822 B( 23-N , 72-C ) :   0.8822 B( 23-N ,145-H ) :   0.8017
B( 24-C , 51-C ) :   0.9374 B( 24-C , 84-H ) :   0.9562 B( 24-C , 86-H ) :   0.9402
B( 24-C ,125-H ) :   0.9665 B( 25-C , 29-C ) :   0.8483 B( 25-C , 32-C ) :   0.9060
B( 25-C , 80-H ) :   0.8915 B( 26-C , 28-C ) :   0.8140 B( 26-C , 51-C ) :   0.9193
B( 26-C , 93-H ) :   0.9299 B( 27-C , 33-C ) :   0.8077 B( 30-C , 32-C ) :   0.9604
B( 30-C , 85-H ) :   0.9516 B( 30-C , 88-H ) :   0.9548 B( 30-C , 95-H ) :   0.9601
B( 31-C , 37-C ) :   0.9538 B( 31-C , 87-H ) :   0.9601 B( 31-C , 89-H ) :   0.9415
B( 31-C , 94-H ) :   0.9615 B( 32-C , 34-C ) :   0.9365 B( 32-C , 96-H ) :   0.9340
B( 33-C , 37-C ) :   0.9147 B( 33-C , 90-H ) :   0.9130 B( 34-C , 91-H ) :   0.9448
B( 34-C , 99-H ) :   0.9613 B( 34-C ,100-H ) :   0.9620 B( 35-C , 40-C ) :   0.9302
B( 35-C , 41-C ) :   0.8375 B( 35-C , 92-H ) :   0.8654 B( 36-C , 38-C ) :   0.8378
B( 37-C , 42-C ) :   0.9640 B( 37-C ,103-H ) :   0.9456 B( 38-C , 44-C ) :   0.9060
B( 38-C , 97-H ) :   0.8963 B( 39-C , 43-C ) :   0.8021 B( 40-C , 98-H ) :   0.9589
B( 40-C ,106-H ) :   0.9395 B( 40-C ,108-H ) :   0.9244 B( 42-C ,102-H ) :   0.9580
B( 42-C ,109-H ) :   0.9617 B( 42-C ,111-H ) :   0.9476 B( 43-C , 45-C ) :   0.9219
B( 43-C ,114-H ) :   0.9215 B( 44-C , 46-C ) :   0.9603 B( 44-C , 49-C ) :   0.9448
B( 44-C ,107-H ) :   0.9422 B( 45-C , 47-C ) :   0.9527 B( 45-C , 48-C ) :   0.9478
B( 45-C ,105-H ) :   0.9355 B( 46-C ,110-H ) :   0.9651 B( 46-C ,116-H ) :   0.9593
B( 46-C ,118-H ) :   0.9463 B( 47-C ,112-H ) :   0.9597 B( 47-C ,117-H ) :   0.9588
B( 47-C ,119-H ) :   0.9485 B( 48-C ,113-H ) :   0.9422 B( 48-C ,120-H ) :   0.9587
B( 48-C ,122-H ) :   0.9557 B( 49-C ,115-H ) :   0.9594 B( 49-C ,121-H ) :   0.9381
B( 49-C ,123-H ) :   0.9571 B( 50-C , 53-C ) :   0.9665 B( 50-C , 79-H ) :   0.9293
B( 50-C , 82-H ) :   0.9622 B( 50-C ,130-H ) :   0.9617 B( 51-C , 52-C ) :   0.9629
B( 51-C ,131-H ) :   0.9389 B( 52-C , 83-H ) :   0.9624 B( 52-C ,126-H ) :   0.9222
B( 52-C ,129-H ) :   0.9624 B( 53-C , 54-C ) :   0.9397 B( 53-C , 56-C ) :   0.9265
B( 53-C , 81-H ) :   0.9373 B( 54-C ,124-H ) :   0.9668 B( 54-C ,132-H ) :   0.9586
B( 54-C ,133-H ) :   0.9324 B( 55-C , 58-C ) :   0.8303 B( 55-C , 60-C ) :   0.9372
B( 55-C ,128-H ) :   0.8869 B( 56-C , 59-C ) :   0.8058 B( 56-C ,138-H ) :   0.9214
B( 57-C , 61-C ) :   0.8074 B( 60-C ,134-H ) :   0.9412 B( 60-C ,140-H ) :   0.9461
B( 60-C ,141-H ) :   0.9448 B( 61-C , 65-C ) :   0.9161 B( 61-C ,136-H ) :   0.9133
B( 62-C , 65-C ) :   0.9498 B( 62-C ,135-H ) :   0.9581 B( 62-C ,137-H ) :   0.9415
B( 62-C ,142-H ) :   0.9594 B( 63-C , 66-C ) :   0.8326 B( 64-C , 68-C ) :   0.8357
B( 64-C , 69-C ) :   0.9118 B( 64-C ,139-H ) :   0.8677 B( 65-C , 71-C ) :   0.9613
B( 65-C ,148-H ) :   0.9280 B( 66-C , 73-C ) :   0.9442 B( 66-C ,143-H ) :   0.9093
B( 67-C , 72-C ) :   0.7874 B( 69-C , 70-C ) :   0.9596 B( 69-C , 75-C ) :   0.9396
B( 69-C ,146-H ) :   0.9457 B( 70-C ,144-H ) :   0.9609 B( 70-C ,151-H ) :   0.9136
B( 70-C ,154-H ) :   0.9641 B( 71-C ,147-H ) :   0.9563 B( 71-C ,153-H ) :   0.9613
B( 71-C ,155-H ) :   0.9551 B( 72-C , 74-C ) :   0.9100 B( 72-C ,161-H ) :   0.9192
B( 73-C ,152-H ) :   0.9420 B( 73-C ,157-H ) :   0.9465 B( 73-C ,160-H ) :   0.9480
B( 74-C , 76-C ) :   0.9429 B( 74-C , 77-C ) :   0.9538 B( 74-C ,150-H ) :   0.9442
B( 75-C ,158-H ) :   0.9439 B( 75-C ,162-H ) :   0.9683 B( 75-C ,164-H ) :   0.9532
B( 76-C ,156-H ) :   0.9624 B( 76-C ,163-H ) :   0.9561 B( 76-C ,165-H ) :   0.9509
B( 77-C ,159-H ) :   0.9501 B( 77-C ,166-H ) :   0.9564 B( 77-C ,167-H ) :   0.9553

FINAL SINGLE POINT ENERGY     -3760.177900076211

DIPOLE MOMENT
-------------
                                X             Y             Z
Electronic contribution:     -4.96129      14.41763      -4.47689
Nuclear contribution   :      4.74110     -14.78988       4.90468
                        -----------------------------------------
Total Dipole Moment    :     -0.22019      -0.37225       0.42779
                        -----------------------------------------
Magnitude (a.u.)       :      0.60833
Magnitude (Debye)      :      1.54624

Rotational constants in cm-1:     0.001327     0.000669     0.000660
Rotational constants in MHz :    39.769063    20.052824    19.784539

                             ****ORCA TERMINATED NORMALLY****
TOTAL RUN TIME: 0 days 0 hours 3 minutes 7 seconds 977 msec
